% Model:              Nanowire_Eigenfrequency.mph
% Version:            COMSOL 5.6.0.341
% Date:               Dec 14 2021, 16:44
% Dimension:          2
% Nodes:              20301
% Expressions:        1
% Description:        Electric field norm
% Length unit:        nm
% X                       Y                        ewfd.normE (V/m) @ lambda=7E-12
22.5                      12.990381056766578       8.156795413376349E8
22.5999999                12.990381056766578       8.152122251809174E8
22.699999799999997        12.990381056766578       8.159885823947691E8
22.799999699999997        12.990381056766578       8.177168971306103E8
22.8999996                12.990381056766578       8.189872070450344E8
22.9999995                12.990381056766578       8.194234769705789E8
23.099999399999998        12.990381056766578       8.208381777663554E8
23.1999993                12.990381056766578       8.232262923136172E8
23.2999992                12.990381056766578       8.25849802732875E8
23.399999099999995        12.990381056766578       8.277767026984352E8
23.499999                 12.990381056766578       8.312457255604728E8
23.5999989                12.990381056766578       8.356920999045181E8
23.699998799999996        12.990381056766578       8.380301645379978E8
23.7999987                12.990381056766578       8.425680036250671E8
23.8999986                12.990381056766578       8.464646219156638E8
23.999998499999997        12.990381056766578       8.513292093392202E8
24.0999984                12.990381056766578       8.56229625860753E8
24.1999983                12.990381056766578       8.609947228400971E8
24.299998199999997        12.990381056766578       8.661764474538621E8
24.399998099999998        12.990381056766578       8.722451924641614E8
24.499998                 12.990381056766578       8.782025183662232E8
24.599997899999998        12.990381056766578       8.836478728999971E8
24.699997799999995        12.990381056766578       8.900033326888362E8
24.7999977                12.990381056766578       8.961860541980143E8
24.8999976                12.990381056766578       9.043017083488444E8
24.999997499999996        12.990381056766578       9.114116179504431E8
25.0999974                12.990381056766578       9.187745859148597E8
25.1999973                12.990381056766578       9.269439037498379E8
25.299997199999996        12.990381056766578       9.34260405364185E8
25.3999971                12.990381056766578       9.416124304258031E8
25.499997                 12.990381056766578       9.498494809465525E8
25.599996899999997        12.990381056766578       9.588987988048104E8
25.6999968                12.990381056766578       9.676607664154906E8
25.7999967                12.990381056766578       9.768407592134496E8
25.899996599999998        12.990381056766578       9.861075978829699E8
25.999996499999998        12.990381056766578       9.946802033102196E8
26.099996400000002        12.990381056766578       1.0039352649383281E9
26.1999963                12.990381056766578       1.0140229342827694E9
26.299996199999995        12.990381056766578       1.0248432796099752E9
26.3999961                12.990381056766578       1.0347755800325793E9
26.499996                 12.990381056766578       1.0451836841989412E9
26.599995899999996        12.990381056766578       1.0554486059630193E9
26.6999958                12.990381056766578       1.0657201070152571E9
26.7999957                12.990381056766578       1.0757616522701414E9
26.899995599999997        12.990381056766578       1.0868229173632355E9
26.9999955                12.990381056766578       1.0984333099936786E9
27.0999954                12.990381056766578       1.1104621883448346E9
27.199995299999998        12.990381056766578       1.1218132601770077E9
27.299995199999994        12.990381056766578       1.133995531985788E9
27.399995099999998        12.990381056766578       1.1449182780848832E9
27.499994999999995        12.990381056766578       1.1566860082285655E9
27.599994899999995        12.990381056766578       1.168187608203791E9
27.6999948                12.990381056766578       1.1807066673306983E9
27.7999947                12.990381056766578       1.1927969238206744E9
27.899994599999996        12.990381056766578       1.2056491620213425E9
27.9999945                12.990381056766578       1.2192393223910196E9
28.0999944                12.990381056766578       1.2315865766271656E9
28.199994299999997        12.990381056766578       1.2449840891532125E9
28.2999942                12.990381056766578       1.257454999904219E9
28.3999941                12.990381056766578       1.2700904121358259E9
28.499993999999997        12.990381056766578       1.2832594022569783E9
28.5999939                12.990381056766578       1.2971812268402555E9
28.6999938                12.990381056766578       1.3102991574000375E9
28.799993699999998        12.990381056766578       1.3242524411910567E9
28.899993600000002        12.990381056766578       1.3376449698239825E9
28.999993500000002        12.990381056766578       1.3517858299717858E9
29.099993399999995        12.990381056766578       1.365717649279265E9
29.199993299999996        12.990381056766578       1.3799496271801798E9
29.2999932                12.990381056766578       1.3949135292535732E9
29.399993099999996        12.990381056766578       1.4088211610394092E9
29.499992999999996        12.990381056766578       1.4233630486499863E9
29.5999929                12.990381056766578       1.4375682775704887E9
29.6999928                12.990381056766578       1.4525184519876344E9
29.799992699999997        12.990381056766578       1.4672699153875215E9
29.8999926                12.990381056766578       1.4822195859431376E9
29.9999925                12.990381056766578       1.4978978998755643E9
30.099992399999998        12.990381056766578       1.5110976644808698E9
30.199992299999998        12.990381056766578       1.5285501551719544E9
30.2999922                12.990381056766578       1.5434450637344325E9
30.399992099999995        12.990381056766578       1.5591020553379867E9
30.499991999999995        12.990381056766578       1.5752425233831658E9
30.599991899999996        12.990381056766578       1.5906356384186761E9
30.6999918                12.990381056766578       1.606775922585985E9
30.7999917                12.990381056766578       1.623641041670011E9
30.8999916                12.990381056766578       1.640240991557865E9
30.999991499999997        12.990381056766578       1.655730684179879E9
31.099991399999997        12.990381056766578       1.6720190367004974E9
31.199991299999997        12.990381056766578       1.6890828834966075E9
31.2999912                12.990381056766578       1.706145500006099E9
31.3999911                12.990381056766578       1.7225778484754395E9
31.499991                 12.990381056766578       1.7397734474243126E9
31.5999909                12.990381056766578       1.7577098371847768E9
31.6999908                12.990381056766578       1.7752853924033127E9
31.7999907                12.990381056766578       1.7921389032487087E9
31.8999906                12.990381056766578       1.809822325014264E9
31.999990499999996        12.990381056766578       1.8283115160673046E9
32.099990399999996        12.990381056766578       1.8468441159947054E9
32.199990299999996        12.990381056766578       1.8644353654852598E9
32.299990199999996        12.990381056766578       1.8828313779330864E9
32.3999901                12.990381056766578       1.9020087480207062E9
32.49998999999999         12.990381056766578       1.9219440323112051E9
22.5                      12.990381056766578       8.156795413376349E8
22.599950556085915        12.993522129533316       8.143605055112497E8
22.699901112171833        12.99666320230005        8.142822675981236E8
22.79985166825775         12.999804275066788       8.15156109774774E8
22.899802224343667        13.002945347833526       8.155673403317566E8
22.999752780429585        13.006086420600264       8.151581565443751E8
23.099703336515503        13.009227493367          8.157373549648045E8
23.199653892601415        13.012368566133736       8.17120043856353E8
23.299604448687337        13.015509638900472       8.192611802941092E8
23.399555004773255        13.018650711667211       8.199201710439004E8
23.499505560859166        13.021791784433947       8.223995796860934E8
23.599456116945085        13.024932857200685       8.259922972454923E8
23.699406673031007        13.02807392996742        8.273843749269875E8
23.79935722911692         13.031215002734157       8.31215301584634E8
23.899307785202836        13.034356075500895       8.342949232421582E8
23.99925834128876         13.037497148267633       8.382793618329996E8
24.099208897374673        13.040638221034369       8.417112943173833E8
24.199159453460588        13.043779293801105       8.461376888167183E8
24.29911000954651         13.046920366567841       8.505148831877604E8
24.399060565632425        13.05006143933458        8.558031300989817E8
24.49901112171834         13.053202512101317       8.611921924464135E8
24.598961677804258        13.056343584868054       8.659141989054308E8
24.698912233890177        13.059484657634789       8.715762549240699E8
24.798862789976095        13.062625730401527       8.77245051586688E8
24.898813346062006        13.065766803168263       8.836358621026548E8
24.998763902147928        13.068907875935002       8.894105249065764E8
25.098714458233847        13.072048948701738       8.960402663860773E8
25.198665014319758        13.075190021468476       9.035063501730742E8
25.29861557040568         13.07833109423521        9.106079115001547E8
25.3985661264916          13.081472167001948       9.173298970781313E8
25.49851668257751         13.084613239768686       9.249387389223615E8
25.59846723866343         13.087754312535424       9.318926260450536E8
25.698417794749346        13.09089538530216        9.400978008547843E8
25.79836835083526         13.094036458068896       9.479377293774883E8
25.89831890692118         13.097177530835632       9.565832189838598E8
25.998269463007098        13.100318603602371       9.649396607107129E8
26.098220019093013        13.103459676369107       9.735407478389349E8
26.19817057517893         13.106600749135845       9.829730113020246E8
26.29812113126485         13.10974182190258        9.905501341787047E8
26.398071687350768        13.112882894669317       1.0007293594987648E9
26.498022243436683        13.116023967436055       1.0096674066119255E9
26.5979727995226          13.119165040202793       1.0193774866060262E9
26.69792335560852         13.122306112969529       1.0292897034126986E9
26.797873911694435        13.125447185736267       1.0388261528545015E9
26.897824467780353        13.128588258503001       1.0491621298814065E9
26.99777502386627         13.131729331269739       1.0602743124857632E9
27.097725579952186        13.134870404036477       1.068325505099031E9
27.1976761360381          13.138011476803214       1.0805290273900433E9
27.29762669212402         13.14115254956995        1.0903767752765691E9
27.397577248209934        13.144293622336686       1.1009684419318597E9
27.497527804295853        13.147434695103422       1.1122828159978514E9
27.597478360381775        13.150575767870162       1.122890392922371E9
27.69742891646769         13.153716840636898       1.1338562677527673E9
27.797379472553605        13.156857913403636       1.145567234778979E9
27.897330028639523        13.15999898617037        1.158000718072297E9
27.99728058472544         13.163140058937108       1.167403361854192E9
28.097231140811356        13.166281131703846       1.1794944497734754E9
28.197181696897275        13.169422204470584       1.1906320404179037E9
28.297132252983193        13.17256327723732        1.2024897308420887E9
28.397082809069108        13.175704350004056       1.2150464473211083E9
28.497033365155023        13.178845422770792       1.2278358204349673E9
28.596983921240945        13.18198649553753        1.2393147347300162E9
28.696934477326863        13.185127568304267       1.251498373638595E9
28.796885033412774        13.188268641071005       1.2640895830484514E9
28.896835589498696        13.191409713837741       1.2771673646911356E9
28.996786145584615        13.194550786604477       1.289136477704953E9
29.096736701670526        13.197691859371213       1.3020648170382743E9
29.196687257756448        13.200832932137953       1.3144579834763935E9
29.296637813842366        13.203974004904689       1.3276602138691502E9
29.396588369928278        13.207115077671427       1.3407390287593846E9
29.496538926014196        13.21025615043816        1.3538351459178064E9
29.596489482100118        13.213397223204899       1.3676601163562112E9
29.69644003818603         13.216538295971636       1.38011022688262E9
29.796390594271944        13.219679368738374       1.3942200688781836E9
29.896341150357866        13.22282044150511        1.4074308813519034E9
29.99629170644378         13.225961514271846       1.4212244808910131E9
30.096242262529696        13.229102587038582       1.4357504719436257E9
30.196192818615614        13.23224365980532        1.4487740514369078E9
30.296143374701536        13.235384732572058       1.463048005437694E9
30.39609393078745         13.238525805338796       1.476292245964663E9
30.49604448687337         13.24166687810553        1.4921620594720526E9
30.595995042959284        13.244807950872268       1.505191877571787E9
30.6959455990452          13.247949023639004       1.5197078717749486E9
30.79589615513112         13.251090096405743       1.5347949484996738E9
30.89584671121704         13.25423116917248        1.549175608083319E9
30.995797267302954        13.257372241939217       1.5636791105930316E9
31.09574782338887         13.260513314705952       1.5789222285266492E9
31.195698379474788        13.26365438747269        1.592739064389037E9
31.295648935560703        13.266795460239427       1.6096897616644146E9
31.395599491646617        13.269936533006165       1.6235433624532492E9
31.495550047732543        13.273077605772901       1.6391225217410743E9
31.595500603818458        13.276218678539637       1.6554768642148714E9
31.695451159904373        13.279359751306373       1.6706630781969995E9
31.795401715990295        13.282500824073113       1.6860090591256645E9
31.895352272076206        13.285641896839849       1.7021212345275927E9
31.99530282816212         13.288782969606586       1.7169520285851867E9
32.09525338424804         13.29192404237332        1.735477092206039E9
32.19520394033396         13.295065115140059       1.7494316707092497E9
32.295154496419876        13.298206187906796       1.7663409466488214E9
32.3951050525058          13.301347260673534       1.7837245920464287E9
32.495055608591706        13.30448833344027        1.8015546396392465E9
22.5                      12.990381056766578       8.156795413376349E8
22.599802573040154        12.996660102440456       8.135094029408469E8
22.699605146080305        13.002939148114336       8.125754310820938E8
22.799407719120463        13.009218193788216       8.1259190453097E8
22.899210292160618        13.015497239462096       8.12152066867757E8
22.99901286520077         13.021776285135974       8.108940989031234E8
23.098815438240926        13.028055330809853       8.106327856988266E8
23.198618011281077        13.034334376483734       8.11330284325472E8
23.298420584321235        13.040613422157612       8.126747487210897E8
23.39822315736139         13.046892467831492       8.125281536468354E8
23.49802573040154         13.05317151350537        8.1331734639908E8
23.5978283034417          13.059450559179252       8.162576008750302E8
23.69763087648185         13.065729604853129       8.167176487408013E8
23.797433449522007        13.07200865052701        8.202744620496383E8
23.89723602256216         13.078287696200888       8.225327614930239E8
23.997038595602312        13.084566741874768       8.256824221810603E8
24.09684116864247         13.090845787548647       8.285932855480732E8
24.196643741682625        13.097124833222528       8.312352626249706E8
24.296446314722775        13.103403878896405       8.347918448701652E8
24.396248887762933        13.109682924570286       8.392837017287363E8
24.496051460803084        13.115961970244165       8.44130094178065E8
24.595854033843242        13.122241015918044       8.481129333378572E8
24.695656606883396        13.128520061591924       8.528385406411963E8
24.795459179923544        13.134799107265804       8.583395130077087E8
24.895261752963705        13.141078152939684       8.620741835699447E8
24.995064326003856        13.14735719861356        8.673062005019469E8
25.094866899044014        13.153636244287442       8.731856677081743E8
25.194669472084165        13.15991528996132        8.799323369248275E8
25.294472045124316        13.1661943356352         8.868537652237391E8
25.394274618164474        13.172473381309079       8.929295424061785E8
25.494077191204628        13.17875242698296        8.994472811089426E8
25.59387976424478         13.185031472656837       9.0660491786182E8
25.693682337284937        13.191310518330718       9.126367027384096E8
25.793484910325088        13.197589564004597       9.19705140812283E8
25.893287483365246        13.203868609678477       9.268877659821782E8
25.9930900564054          13.210147655352355       9.350459258989352E8
26.09289262944555         13.216426701026236       9.430134352389636E8
26.19269520248571         13.222705746700115       9.508019781469945E8
26.29249777552586         13.228984792373994       9.59000081571421E8
26.392300348566014        13.235263838047873       9.667340140970858E8
26.492102921606172        13.241542883721754       9.752526728034747E8
26.591905494646323        13.247821929395633       9.83106456973749E8
26.69170806768648         13.254100975069512       9.926687191699299E8
26.791510640726635        13.260380020743392       1.0026576537464706E9
26.891313213766786        13.266659066417269       1.0110077622431345E9
26.991115786806944        13.27293811209115        1.0200791567368419E9
27.090918359847095        13.279217157765029       1.0295864614574054E9
27.190720932887253        13.285496203438909       1.0384201814823586E9
27.290523505927407        13.291775249112787       1.0479865155156208E9
27.390326078967558        13.298054294786668       1.0567971729965572E9
27.490128652007716        13.304333340460547       1.0676574983956566E9
27.589931225047867        13.310612386134427       1.0773611632188277E9
27.68973379808802         13.316891431808305       1.0889596693228078E9
27.78953637112818         13.323170477482186       1.0983178998696113E9
27.88933894416833         13.329449523156063       1.1083631218674982E9
27.989141517208488        13.335728568829945       1.1190768468959289E9
28.088944090248642        13.342007614503823       1.129477627533036E9
28.188746663288793        13.348286660177703       1.1402991139488904E9
28.28854923632895         13.35456570585158        1.1514111666058383E9
28.3883518093691          13.360844751525462       1.1626512081101563E9
28.48815438240926         13.36712379719934        1.1730191503123908E9
28.587956955449414        13.37340284287322        1.183959635685895E9
28.687759528489565        13.3796818885471         1.195556026468871E9
28.787562101529723        13.385960934220977       1.206583254485331E9
28.887364674569874        13.392239979894859       1.2177740343918917E9
28.987167247610028        13.398519025568737       1.2289257978651497E9
29.086969820650182        13.404798071242618       1.240071353941168E9
29.186772393690337        13.411077116916495       1.2525338876797357E9
29.286574966730495        13.417356162590377       1.263954469412081E9
29.386377539770645        13.423635208264255       1.2764041765660424E9
29.486180112810796        13.429914253938135       1.2876621045569398E9
29.585982685850958        13.436193299612013       1.2995863001846447E9
29.68578525889111         13.442472345285895       1.3119306776134837E9
29.785587831931267        13.448751390959771       1.3233186458712955E9
29.885390404971417        13.455030436633653       1.3363046994732115E9
29.985192978011575        13.46130948230753        1.3482721519780614E9
30.084995551051723        13.46758852798141        1.360913058749722E9
30.18479812409188         13.473867573655289       1.3734753819529293E9
30.284600697132035        13.48014661932917        1.385612414866698E9
30.38440327017219         13.486425665003049       1.3985986149686496E9
30.48420584321234         13.492704710676929       1.4108953067961817E9
30.584008416252495        13.498983756350809       1.4236514707365136E9
30.68381098929265         13.505262802024687       1.436930608715769E9
30.783613562332807        13.511541847698567       1.4499172032063875E9
30.88341613537296         13.517820893372445       1.4642015294942226E9
30.98321870841312         13.524099939046327       1.4763243033250196E9
31.083021281453266        13.530378984720203       1.4891404747759562E9
31.182823854493428        13.536658030394085       1.503577491941688E9
31.28262642753358         13.542937076067963       1.5160968961749709E9
31.382429000573733        13.549216121741843       1.529608450493076E9
31.482231573613884        13.555495167415721       1.543530190093047E9
31.58203414665404         13.561774213089603       1.5574611697017887E9
31.681836719694193        13.568053258763479       1.5726692840550168E9
31.78163929273435         13.57433230443736        1.5852852747186298E9
31.881441865774505        13.580611350111239       1.5987653177121062E9
31.98124443881466         13.586890395785119       1.614296560554925E9
32.081047011854814        13.593169441458997       1.6275840557946E9
32.18084958489497         13.599448487132879       1.6419308588891227E9
32.28065215793512         13.605727532806757       1.6572330547790344E9
32.38045473097527         13.612006578480635       1.6715827520772882E9
32.48025730401543         13.618285624154517       1.686369515873391E9
22.5                      12.990381056766578       8.156795413376349E8
22.599556096904113        12.999791878687597       8.12659765951409E8
22.699112193808222        13.009202700608617       8.10869780476218E8
22.798668290712335        13.01861352252964        8.100268391095663E8
22.898224387616445        13.028024344450658       8.087447467567948E8
22.997780484520558        13.037435166371678       8.066354245134587E8
23.09733658142467         13.046845988292697       8.055292805593085E8
23.19689267832878         13.05625681021372        8.05532592140203E8
23.296448775232893        13.065667632134739       8.060968113213944E8
23.396004872137           13.075078454055758       8.051381413086401E8
23.495560969041115        13.084489275976779       8.051270848417397E8
23.595117065945225        13.0939000978978         8.060637353902435E8
23.694673162849337        13.103310919818819       8.087707777093773E8
23.794229259753447        13.112721741739838       8.092858708333989E8
23.89378535665756         13.122132563660859       8.107128768216474E8
23.99334145356167         13.13154338558188        8.130470616962628E8
24.092897550465786        13.140954207502899       8.154564661169099E8
24.19245364736989         13.150365029423918       8.173328094294583E8
24.292009744274008        13.15977585134494        8.201366772176805E8
24.391565841178117        13.16918667326596        8.22700098429239E8
24.49112193808223         13.178597495186981       8.270290125151914E8
24.59067803498634         13.188008317107998       8.306382508957561E8
24.690234131890453        13.197419139029021       8.345718308482484E8
24.789790228794562        13.20682996095004        8.393409990563658E8
24.889346325698675        13.216240782871061       8.427474511511316E8
24.988902422602784        13.225651604792079       8.469335745359759E8
25.0884585195069          13.235062426713101       8.519853682167938E8
25.188014616411007        13.24447324863412        8.562372339109637E8
25.287570713315123        13.253884070555142       8.63011568752075E8
25.387126810219236        13.263294892476159       8.682542408335555E8
25.486682907123345        13.272705714397182       8.739409324382241E8
25.58623900402746         13.2821165363182         8.804222143823254E8
25.685795100931568        13.29152735823922        8.864165812672821E8
25.78535119783568         13.300938180160239       8.928899691360129E8
25.88490729473979         13.310349002081262       8.991369776020117E8
25.984463391643903        13.319759824002281       9.052836785721456E8
26.084019488548012        13.3291706459233         9.1219143376129E8
26.183575585452125        13.33858146784432        9.193645603057331E8
26.283131682356235        13.347992289765342       9.272966766176094E8
26.38268777926035         13.357403111686363       9.344646860473319E8
26.482243876164457        13.36681393360738        9.424542954163412E8
26.581799973068573        13.376224755528401       9.494885615183665E8
26.681356069972683        13.385635577449422       9.572654221987709E8
26.780912166876796        13.395046399370443       9.64685573039165E8
26.8804682637809          13.40445722129146        9.733153941726704E8
26.980024360685018        13.413868043212481       9.818612480314661E8
27.079580457589127        13.423278865133502       9.906497306724524E8
27.179136554493244        13.432689687054523       9.98978218702796E8
27.27869265139735         13.44210050897554        1.008077070595814E9
27.378248748301466        13.451511330896562       1.015848237144101E9
27.477804845205572        13.460922152817583       1.0247604380833037E9
27.57736094210969         13.470332974738604       1.033899371749636E9
27.676917039013798        13.479743796659621       1.0437666883054451E9
27.77647313591791         13.489154618580642       1.052641754105411E9
27.87602923282202         13.498565440501663       1.0622416200162915E9
27.975585329726133        13.507976262422684       1.072546827012798E9
28.075141426630243        13.517387084343701       1.081419420406481E9
28.17469752353436         13.526797906264722       1.0913450427580738E9
28.274253620438465        13.536208728185745       1.1006829458612142E9
28.37380971734258         13.545619550106764       1.110092750413678E9
28.473365814246687        13.555030372027783       1.1199530134490623E9
28.572921911150804        13.564441193948802       1.1304980637812862E9
28.672478008054917        13.573852015869825       1.1400747344696982E9
28.772034104959022        13.583262837790844       1.1510010911358402E9
28.87159020186314         13.592673659711863       1.1608713113200192E9
28.97114629876725         13.602084481632884       1.1714283239543784E9
29.07070239567136         13.611495303553905       1.1818141959827273E9
29.17025849257547         13.620906125474924       1.192185003166029E9
29.269814589479587        13.630316947395944       1.2032117910522282E9
29.369370686383693        13.639727769316965       1.214673720882295E9
29.468926783287806        13.649138591237985       1.224428986145783E9
29.568482880191915        13.658549413159005       1.2348749833858848E9
29.66803897709603         13.667960235080024       1.2459942941702678E9
29.767595074000138        13.677371057001045       1.2569512342338114E9
29.86715117090425         13.686781878922066       1.2676249703394327E9
29.966707267808363        13.696192700843083       1.2789425960158532E9
30.066263364712473        13.705603522764104       1.2904681725246463E9
30.165819461616586        13.715014344685127       1.3015616047577045E9
30.265375558520702        13.724425166606146       1.3123358066146255E9
30.364931655424808        13.733835988527167       1.3237857625518868E9
30.464487752328917        13.743246810448184       1.335994822238459E9
30.56404384923303         13.752657632369207       1.3466698058406587E9
30.663599946137147        13.762068454290226       1.3579967457377229E9
30.763156043041253        13.771479276211245       1.3699594182226593E9
30.86271213994537         13.780890098132264       1.3802086298022869E9
30.962268236849482        13.790300920053287       1.3933037817012603E9
31.06182433375359         13.799711741974306       1.4049406339627068E9
31.161380430657704        13.809122563895325       1.4172543526871984E9
31.260936527561814        13.818533385816345       1.4298309714644315E9
31.360492624465927        13.827944207737367       1.4409641159547646E9
31.460048721370036        13.837355029658386       1.4527597458496354E9
31.55960481827415         13.846765851579406       1.4652018128808744E9
31.659160915178262        13.856176673500427       1.4763030629736629E9
31.75871701208237         13.865587495421448       1.4898617955939975E9
31.858273108986484        13.874998317342468       1.5022428394598475E9
31.957829205890594        13.884409139263486       1.515316712660883E9
32.05738530279471         13.893819961184507       1.528774284735936E9
32.15694139969882         13.903230783105528       1.5403983171611395E9
32.25649749660293         13.912641605026549       1.552715890064092E9
32.356053593507035        13.922052426947566       1.565710600763923E9
32.45560969041115         13.931463248868587       1.5807746755863419E9
22.5                      12.990381056766578       8.156795413376349E8
22.599211370919978        13.002914367589685       8.118124441620288E8
22.698422741839956        13.01544767841279        8.091670327566261E8
22.79763411275993         13.027980989235898       8.074634957973248E8
22.89684548367991         13.040514300059005       8.053487757404743E8
22.99605685459989         13.053047610882114       8.023863153280169E8
23.095268225519863        13.065580921705221       8.00431742216082E8
23.194479596439844        13.078114232528328       7.997328205012356E8
23.293690967359822        13.090647543351436       7.995338233054372E8
23.3929023382798          13.103180854174541       7.977571699302894E8
23.492113709199774        13.115714164997646       7.969384287936362E8