% Model:              Nanowire_Eigenfrequency.mph
% Version:            COMSOL 5.6.0.341
% Date:               Dec 14 2021, 17:06
% Dimension:          2
% Nodes:              20301
% Expressions:        1
% Description:        Electric field norm
% Length unit:        nm
% X                       Y                        ewfd.normE (V/m) @ lambda=8E-12
22.5                      12.990381056766578       8.223484121464966E7
22.5999999                12.990381056766578       8.221028857865761E7
22.699999799999997        12.990381056766578       8.22120148112899E7
22.799999699999997        12.990381056766578       8.222998577669741E7
22.8999996                12.990381056766578       8.221609654286559E7
22.9999995                12.990381056766578       8.21569940653592E7
23.099999399999998        12.990381056766578       8.21144458766506E7
23.1999993                12.990381056766578       8.208848101778567E7
23.2999992                12.990381056766578       8.205667170685314E7
23.399999099999995        12.990381056766578       8.198676533614358E7
23.499999                 12.990381056766578       8.194749779508226E7
23.5999989                12.990381056766578       8.192521083056371E7
23.699998799999996        12.990381056766578       8.181218352530542E7
23.7999987                12.990381056766578       8.177088838132338E7
23.8999986                12.990381056766578       8.168146113016362E7
23.999998499999997        12.990381056766578       8.160896990664601E7
24.0999984                12.990381056766578       8.154953882800598E7
24.1999983                12.990381056766578       8.142333618667276E7
24.299998199999997        12.990381056766578       8.132632790184347E7
24.399998099999998        12.990381056766578       8.124554883280936E7
24.499998                 12.990381056766578       8.114201893075801E7
24.599997899999998        12.990381056766578       8.100446390755321E7
24.699997799999995        12.990381056766578       8.088344984784801E7
24.7999977                12.990381056766578       8.07483374662665E7
24.8999976                12.990381056766578       8.065214466984981E7
24.999997499999996        12.990381056766578       8.049311094915736E7
25.0999974                12.990381056766578       8.036736705010325E7
25.1999973                12.990381056766578       8.025752055108671E7
25.299997199999996        12.990381056766578       8.008469616729474E7
25.3999971                12.990381056766578       7.990638397740848E7
25.499997                 12.990381056766578       7.974489493475483E7
25.599996899999997        12.990381056766578       7.958084337749083E7
25.6999968                12.990381056766578       7.942227586644654E7
25.7999967                12.990381056766578       7.924270453635652E7
25.899996599999998        12.990381056766578       7.908693473360215E7
25.999996499999998        12.990381056766578       7.887089843412478E7
26.099996400000002        12.990381056766578       7.867321187225656E7
26.1999963                12.990381056766578       7.848740863356395E7
26.299996199999995        12.990381056766578       7.833133547158289E7
26.3999961                12.990381056766578       7.809411830683264E7
26.499996                 12.990381056766578       7.787582178724748E7
26.599995899999996        12.990381056766578       7.768222411414482E7
26.6999958                12.990381056766578       7.743942106465416E7
26.7999957                12.990381056766578       7.720076362753452E7
26.899995599999997        12.990381056766578       7.69758416684403E7
26.9999955                12.990381056766578       7.675331539073122E7
27.0999954                12.990381056766578       7.656795501227435E7
27.199995299999998        12.990381056766578       7.629045716593726E7
27.299995199999994        12.990381056766578       7.603031795198339E7
27.399995099999998        12.990381056766578       7.578562673213665E7
27.499994999999995        12.990381056766578       7.556463582138239E7
27.599994899999995        12.990381056766578       7.523328600787407E7
27.6999948                12.990381056766578       7.50073628740682E7
27.7999947                12.990381056766578       7.472277989878426E7
27.899994599999996        12.990381056766578       7.445470495852521E7
27.9999945                12.990381056766578       7.420333302688034E7
28.0999944                12.990381056766578       7.391729508136442E7
28.199994299999997        12.990381056766578       7.36230494197729E7
28.2999942                12.990381056766578       7.335059557882358E7
28.3999941                12.990381056766578       7.304171522335537E7
28.499993999999997        12.990381056766578       7.27264110580361E7
28.5999939                12.990381056766578       7.242760120934556E7
28.6999938                12.990381056766578       7.21460885561774E7
28.799993699999998        12.990381056766578       7.183521422532116E7
28.899993600000002        12.990381056766578       7.150139931021194E7
28.999993500000002        12.990381056766578       7.118368188740882E7
29.099993399999995        12.990381056766578       7.08682715672393E7
29.199993299999996        12.990381056766578       7.0537113854349E7
29.2999932                12.990381056766578       7.0222213307828E7
29.399993099999996        12.990381056766578       6.98466891635435E7
29.499992999999996        12.990381056766578       6.955707518135867E7
29.5999929                12.990381056766578       6.919823950655855E7
29.6999928                12.990381056766578       6.885510812659462E7
29.799992699999997        12.990381056766578       6.850777550472178E7
29.8999926                12.990381056766578       6.815308027299643E7
29.9999925                12.990381056766578       6.78141354500247E7
30.099992399999998        12.990381056766578       6.74342292063285E7
30.199992299999998        12.990381056766578       6.710722637741324E7
30.2999922                12.990381056766578       6.6717435900271036E7
30.399992099999995        12.990381056766578       6.6342854272635095E7
30.499991999999995        12.990381056766578       6.5978917526142046E7
30.599991899999996        12.990381056766578       6.559302577940807E7
30.6999918                12.990381056766578       6.52221265309961E7
30.7999917                12.990381056766578       6.486647793090739E7
30.8999916                12.990381056766578       6.450403628455135E7
30.999991499999997        12.990381056766578       6.407874262951012E7
31.099991399999997        12.990381056766578       6.3667978346534215E7
31.199991299999997        12.990381056766578       6.3272023508319095E7
31.2999912                12.990381056766578       6.287546168337938E7
31.3999911                12.990381056766578       6.24680206958026E7
31.499991                 12.990381056766578       6.207479527732505E7
31.5999909                12.990381056766578       6.169605244799455E7
31.6999908                12.990381056766578       6.1300308727566876E7
31.7999907                12.990381056766578       6.085076093355362E7
31.8999906                12.990381056766578       6.041508480230948E7
31.999990499999996        12.990381056766578       5.999357377258488E7
32.099990399999996        12.990381056766578       5.9574912701839626E7
32.199990299999996        12.990381056766578       5.913927644733924E7
32.299990199999996        12.990381056766578       5.87167326442521E7
32.3999901                12.990381056766578       5.830755517922882E7
32.49998999999999         12.990381056766578       5.7912016577410705E7
22.5                      12.990381056766578       8.223484121464966E7
22.599950556085915        12.993522129533316       8.217131320332885E7
22.699901112171833        12.99666320230005        8.21340060869317E7
22.79985166825775         12.999804275066788       8.211291017058356E7
22.899802224343667        13.002945347833526       8.205965397150421E7
22.999752780429585        13.006086420600264       8.196141642586069E7
23.099703336515503        13.009227493367          8.187977345149355E7
23.199653892601415        13.012368566133736       8.180638217909457E7
23.299604448687337        13.015509638900472       8.1753222974159E7
23.399555004773255        13.018650711667211       8.16319349215304E7
23.499505560859166        13.021791784433947       8.154945546601461E7
23.599456116945085        13.024932857200685       8.148705855060446E7
23.699406673031007        13.02807392996742        8.13313322595703E7
23.79935722911692         13.031215002734157       8.126016797249675E7
23.899307785202836        13.034356075500895       8.11310353075443E7
23.99925834128876         13.037497148267633       8.102824384466417E7
24.099208897374673        13.040638221034369       8.08887822484745E7
24.199159453460588        13.043779293801105       8.07659742523663E7
24.29911000954651         13.046920366567841       8.062939037199137E7
24.399060565632425        13.05006143933458        8.050908617148769E7
24.49901112171834         13.053202512101317       8.037831604422575E7
24.598961677804258        13.056343584868054       8.020186955751838E7
24.698912233890177        13.059484657634789       8.004207360796128E7
24.798862789976095        13.062625730401527       7.990612991948676E7
24.898813346062006        13.065766803168263       7.972305300982739E7
24.998763902147928        13.068907875935002       7.954179395996529E7
25.098714458233847        13.072048948701738       7.937640115399371E7
25.198665014319758        13.075190021468476       7.92269881104135E7
25.29861557040568         13.07833109423521        7.904260494304152E7
25.3985661264916          13.081472167001948       7.882576430842711E7
25.49851668257751         13.084613239768686       7.862542670200808E7
25.59846723866343         13.087754312535424       7.841829858920911E7
25.698417794749346        13.09089538530216        7.822238896469189E7
25.79836835083526         13.094036458068896       7.801127304435182E7
25.89831890692118         13.097177530835632       7.781604626344177E7
25.998269463007098        13.100318603602371       7.75922063891944E7
26.098220019093013        13.103459676369107       7.735568507153389E7
26.19817057517893         13.106600749135845       7.713561849191542E7
26.29812113126485         13.10974182190258        7.686701555514146E7
26.398071687350768        13.112882894669317       7.666560144063589E7
26.498022243436683        13.116023967436055       7.641672540539196E7
26.5979727995226          13.119165040202793       7.618353661453435E7
26.69792335560852         13.122306112969529       7.594852376433808E7
26.797873911694435        13.125447185736267       7.567120714364454E7
26.897824467780353        13.128588258503001       7.541007335096592E7
26.99777502386627         13.131729331269739       7.51653075378359E7
27.097725579952186        13.134870404036477       7.48202338829459E7
27.1976761360381          13.138011476803214       7.462287333145742E7
27.29762669212402         13.14115254956995        7.433152425180468E7
27.397577248209934        13.144293622336686       7.405548449026047E7
27.497527804295853        13.147434695103422       7.379494110788646E7
27.597478360381775        13.150575767870162       7.349144507370917E7
27.69742891646769         13.153716840636898       7.31869838117175E7
27.797379472553605        13.156857913403636       7.289831547925588E7
27.897330028639523        13.15999898617037        7.262564313221468E7
27.99728058472544         13.163140058937108       7.220464711927617E7
28.097231140811356        13.166281131703846       7.197159787422143E7
28.197181696897275        13.169422204470584       7.164797344518603E7
28.297132252983193        13.17256327723732        7.133944995426695E7
28.397082809069108        13.175704350004056       7.104623689063884E7
28.497033365155023        13.178845422770792       7.071350126142693E7
28.596983921240945        13.18198649553753        7.03784726738825E7
28.696934477326863        13.185127568304267       7.005819486476551E7
28.796885033412774        13.188268641071005       6.97351017314105E7
28.896835589498696        13.191409713837741       6.938828562043798E7
28.996786145584615        13.194550786604477       6.905063655326195E7
29.096736701670526        13.197691859371213       6.869541262393285E7
29.196687257756448        13.200832932137953       6.835665149688551E7
29.296637813842366        13.203974004904689       6.800188460718113E7
29.396588369928278        13.207115077671427       6.766698526884761E7
29.496538926014196        13.21025615043816        6.729409675251853E7
29.596489482100118        13.213397223204899       6.693619831522307E7
29.69644003818603         13.216538295971636       6.6574490687545024E7
29.796390594271944        13.219679368738374       6.619609067253078E7
29.896341150357866        13.22282044150511        6.585588691433442E7
29.99629170644378         13.225961514271846       6.546719683410035E7
30.096242262529696        13.229102587038582       6.50932013110389E7
30.196192818615614        13.23224365980532        6.4713101029829785E7
30.296143374701536        13.235384732572058       6.4330187740343116E7
30.39609393078745         13.238525805338796       6.393564559954428E7
30.49604448687337         13.24166687810553        6.3547192180866525E7
30.595995042959284        13.244807950872268       6.316705939620736E7
30.6959455990452          13.247949023639004       6.279136778995676E7
30.79589615513112         13.251090096405743       6.238685390424394E7
30.89584671121704         13.25423116917248        6.199563612838494E7
30.995797267302954        13.257372241939217       6.158231064246057E7
31.09574782338887         13.260513314705952       6.11824842097048E7
31.195698379474788        13.26365438747269        6.076385576227763E7
31.295648935560703        13.266795460239427       6.035790859618145E7
31.395599491646617        13.269936533006165       5.999640560434732E7
31.495550047732543        13.273077605772901       5.955876084756925E7
31.595500603818458        13.276218678539637       5.913449040172416E7
31.695451159904373        13.279359751306373       5.87170044663141E7
31.795401715990295        13.282500824073113       5.828278503040113E7
31.895352272076206        13.285641896839849       5.786104796211775E7
31.99530282816212         13.288782969606586       5.741513958735049E7
32.09525338424804         13.29192404237332        5.700347903715645E7
32.19520394033396         13.295065115140059       5.661043144886398E7
32.295154496419876        13.298206187906796       5.6157907702234395E7
32.3951050525058          13.301347260673534       5.571911779031808E7
32.495055608591706        13.30448833344027        5.529392374736353E7
22.5                      12.990381056766578       8.223484121464966E7
22.599802573040154        12.996660102440456       8.213238376534979E7
22.699605146080305        13.002939148114336       8.205605936471045E7
22.799407719120463        13.009218193788216       8.199588253913257E7
22.899210292160618        13.015497239462096       8.190364842941694E7
22.99901286520077         13.021776285135974       8.176630809367348E7
23.098815438240926        13.028055330809853       8.164557154408328E7
23.198618011281077        13.034334376483734       8.154133576269113E7
23.298420584321235        13.040613422157612       8.145085918883349E7
23.39822315736139         13.046892467831492       8.129153345461527E7
23.49802573040154         13.05317151350537        8.114796214039974E7
23.5978283034417          13.059450559179252       8.104962266711329E7
23.69763087648185         13.065729604853129       8.08520876866514E7
23.797433449522007        13.07200865052701        8.074836627036087E7
23.89723602256216         13.078287696200888       8.059625231729215E7
23.997038595602312        13.084566741874768       8.045964703416562E7
24.09684116864247         13.090845787548647       8.029389834229025E7
24.196643741682625        13.097124833222528       8.010819456739113E7
24.296446314722775        13.103403878896405       7.993511367139505E7
24.396248887762933        13.109682924570286       7.977512598324347E7
24.496051460803084        13.115961970244165       7.961869802547008E7
24.595854033843242        13.122241015918044       7.940321968947867E7
24.695656606883396        13.128520061591924       7.921717235029727E7
24.795459179923544        13.134799107265804       7.905818180151023E7
24.895261752963705        13.141078152939684       7.880133066283037E7
24.995064326003856        13.14735719861356        7.859556368036011E7
25.094866899044014        13.153636244287442       7.83902945553366E7
25.194669472084165        13.15991528996132        7.820105181776656E7
25.294472045124316        13.1661943356352         7.800760700433196E7
25.394274618164474        13.172473381309079       7.775199645489644E7
25.494077191204628        13.17875242698296        7.752848439453062E7
25.59387976424478         13.185031472656837       7.733053066537377E7
25.693682337284937        13.191310518330718       7.705446559253904E7
25.793484910325088        13.197589564004597       7.680642892958336E7
25.893287483365246        13.203868609678477       7.65527791202513E7
25.9930900564054          13.210147655352355       7.632335775372493E7
26.09289262944555         13.216426701026236       7.606131882528399E7
26.19269520248571         13.222705746700115       7.581182707132746E7
26.29249777552586         13.228984792373994       7.555349559456207E7
26.392300348566014        13.235263838047873       7.526906796175843E7
26.492102921606172        13.241542883721754       7.499986526813911E7
26.591905494646323        13.247821929395633       7.46960321428029E7
26.69170806768648         13.254100975069512       7.447168866613327E7
26.791510640726635        13.260380020743392       7.416643779532728E7
26.891313213766786        13.266659066417269       7.387520599946448E7
26.991115786806944        13.27293811209115        7.359844369101377E7
27.090918359847095        13.279217157765029       7.329511316148888E7
27.190720932887253        13.285496203438909       7.298273356146252E7
27.290523505927407        13.291775249112787       7.268505931482011E7
27.390326078967558        13.298054294786668       7.234155886992934E7
27.490128652007716        13.304333340460547       7.204082260944295E7
27.589931225047867        13.310612386134427       7.176891783814983E7
27.68973379808802         13.316891431808305       7.143911223068191E7
27.78953637112818         13.323170477482186       7.111426483756232E7
27.88933894416833         13.329449523156063       7.080336549092035E7
27.989141517208488        13.335728568829945       7.050661074846993E7
28.088944090248642        13.342007614503823       7.012867420546237E7
28.188746663288793        13.348286660177703       6.9824468735046E7
28.28854923632895         13.35456570585158        6.946719823066555E7
28.3883518093691          13.360844751525462       6.912636265457663E7
28.48815438240926         13.36712379719934        6.879662258818382E7
28.587956955449414        13.37340284287322        6.845258275720294E7
28.687759528489565        13.3796818885471         6.808652916536064E7
28.787562101529723        13.385960934220977       6.773289769371836E7
28.887364674569874        13.392239979894859       6.738574673128772E7
28.987167247610028        13.398519025568737       6.700103872377696E7
29.086969820650182        13.404798071242618       6.665359804341665E7
29.186772393690337        13.411077116916495       6.6292753014218286E7
29.286574966730495        13.417356162590377       6.592330586130354E7
29.386377539770645        13.423635208264255       6.5553544680782065E7
29.486180112810796        13.429914253938135       6.5180425772031814E7
29.585982685850958        13.436193299612013       6.482053003611504E7
29.68578525889111         13.442472345285895       6.4412700033078E7
29.785587831931267        13.448751390959771       6.404220327037137E7
29.885390404971417        13.455030436633653       6.365948501544772E7
29.985192978011575        13.46130948230753        6.327181740402039E7
30.084995551051723        13.46758852798141        6.289713846774252E7
30.18479812409188         13.473867573655289       6.2496203690179415E7
30.284600697132035        13.48014661932917        6.211763972507109E7
30.38440327017219         13.486425665003049       6.170252107584625E7
30.48420584321234         13.492704710676929       6.131719830390691E7
30.584008416252495        13.498983756350809       6.089629628900565E7
30.68381098929265         13.505262802024687       6.0498230852405556E7
30.783613562332807        13.511541847698567       6.010140058055021E7
30.88341613537296         13.517820893372445       5.969671509426366E7
30.98321870841312         13.524099939046327       5.929592596001494E7
31.083021281453266        13.530378984720203       5.889146785821393E7
31.182823854493428        13.536658030394085       5.846224764241898E7
31.28262642753358         13.542937076067963       5.8049277032319754E7
31.382429000573733        13.549216121741843       5.761312769659107E7
31.482231573613884        13.555495167415721       5.720131614899866E7
31.58203414665404         13.561774213089603       5.679270795413429E7
31.681836719694193        13.568053258763479       5.637697706285395E7
31.78163929273435         13.57433230443736        5.596313195406882E7
31.881441865774505        13.580611350111239       5.554883127929005E7
31.98124443881466         13.586890395785119       5.510243080136134E7
32.081047011854814        13.593169441458997       5.466978962512762E7
32.18084958489497         13.599448487132879       5.421454792818974E7
32.28065215793512         13.605727532806757       5.379978373071126E7
32.38045473097527         13.612006578480635       5.336993409715702E7
32.48025730401543         13.618285624154517       5.29514412237995E7
22.5                      12.990381056766578       8.223484121464966E7
22.599556096904113        12.999791878687597       8.20935388255063E7
22.699112193808222        13.009202700608617       8.197825204235579E7
22.798668290712335        13.01861352252964        8.187901922479017E7
22.898224387616445        13.028024344450658       8.174823503639288E7
22.997780484520558        13.037435166371678       8.157186281842501E7
23.09733658142467         13.046845988292697       8.141207212196253E7
23.19689267832878         13.05625681021372        8.127686378220765E7
23.296448775232893        13.065667632134739       8.114988463209446E7
23.396004872137           13.075078454055758       8.095256185215165E7
23.495560969041115        13.084489275976779       8.077098509127451E7
23.595117065945225        13.0939000978978         8.06052697825007E7
23.694673162849337        13.103310919818819       8.046531300003503E7
23.794229259753447        13.112721741739838       8.025921992599897E7
23.89378535665756         13.122132563660859       8.006848110514155E7
23.99334145356167         13.13154338558188        7.989321748770066E7
24.092897550465786        13.140954207502899       7.97023608216042E7
24.19245364736989         13.150365029423918       7.94787533627295E7
24.292009744274008        13.15977585134494        7.927081191795404E7
24.391565841178117        13.16918667326596        7.904445382295659E7
24.49112193808223         13.178597495186981       7.886398178688604E7
24.59067803498634         13.188008317107998       7.862356798308615E7
24.690234131890453        13.197419139029021       7.841142323878542E7
24.789790228794562        13.20682996095004        7.821426795276065E7
24.889346325698675        13.216240782871061       7.794405660590997E7
24.988902422602784        13.225651604792079       7.769237750022377E7
25.0884585195069          13.235062426713101       7.74559735877923E7
25.188014616411007        13.24447324863412        7.718088075124699E7
25.287570713315123        13.253884070555142       7.698089068012227E7
25.387126810219236        13.263294892476159       7.669844145303738E7
25.486682907123345        13.272705714397182       7.64469525938284E7
25.58623900402746         13.2821165363182         7.621030680794877E7
25.685795100931568        13.29152735823922        7.592585971034181E7
25.78535119783568         13.300938180160239       7.564006681042525E7
25.88490729473979         13.310349002081262       7.537989553084968E7
25.984463391643903        13.319759824002281       7.507419136395416E7
26.084019488548012        13.3291706459233         7.479583068188949E7
26.183575585452125        13.33858146784432        7.450757644454783E7
26.283131682356235        13.347992289765342       7.425286796987252E7
26.38268777926035         13.357403111686363       7.393054967730261E7
26.482243876164457        13.36681393360738        7.362351321399927E7
26.581799973068573        13.376224755528401       7.333262876213437E7
26.681356069972683        13.385635577449422       7.299790836785303E7
26.780912166876796        13.395046399370443       7.268688420793225E7
26.8804682637809          13.40445722129146        7.238777715812469E7
26.980024360685018        13.413868043212481       7.20724542557406E7
27.079580457589127        13.423278865133502       7.178762130200619E7
27.179136554493244        13.432689687054523       7.14373878258694E7
27.27869265139735         13.44210050897554        7.110190381403226E7
27.378248748301466        13.451511330896562       7.076627823829716E7
27.477804845205572        13.460922152817583       7.046386559386027E7
27.57736094210969         13.470332974738604       7.00662733299895E7
27.676917039013798        13.479743796659621       6.978659386173719E7
27.77647313591791         13.489154618580642       6.942353910827975E7
27.87602923282202         13.498565440501663       6.907444665668076E7
27.975585329726133        13.507976262422684       6.873954025425485E7
28.075141426630243        13.517387084343701       6.838731104674634E7
28.17469752353436         13.526797906264722       6.802932433625849E7
28.274253620438465        13.536208728185745       6.768511146562241E7
28.37380971734258         13.545619550106764       6.7301598655988E7
28.473365814246687        13.555030372027783       6.693009811189591E7
28.572921911150804        13.564441193948802       6.657218092200939E7
28.672478008054917        13.573852015869825       6.6226296309898E7
28.772034104959022        13.583262837790844       6.585849649860319E7
28.87159020186314         13.592673659711863       6.546844461035185E7
28.97114629876725         13.602084481632884       6.509145721905976E7
29.07070239567136         13.611495303553905       6.471553442743157E7
29.17025849257547         13.620906125474924       6.433567992279024E7
29.269814589479587        13.630316947395944       6.396872197439472E7
29.369370686383693        13.639727769316965       6.361103866132584E7
29.468926783287806        13.649138591237985       6.319608529977108E7
29.568482880191915        13.658549413159005       6.279333610387444E7
29.66803897709603         13.667960235080024       6.2403029128641926E7
29.767595074000138        13.677371057001045       6.2008272973288864E7
29.86715117090425         13.686781878922066       6.161646133029637E7
29.966707267808363        13.696192700843083       6.123673667988816E7
30.066263364712473        13.705603522764104       6.078931192290789E7
30.165819461616586        13.715014344685127       6.04352842408386E7
30.265375558520702        13.724425166606146       6.001668093082795E7
30.364931655424808        13.733835988527167       5.9609730272272795E7
30.464487752328917        13.743246810448184       5.9207143514731355E7
30.56404384923303         13.752657632369207       5.879855022696403E7
30.663599946137147        13.762068454290226       5.84010311462612E7
30.763156043041253        13.771479276211245       5.801481000122207E7
30.86271213994537         13.780890098132264       5.7553036820464484E7
30.962268236849482        13.790300920053287       5.715936836956992E7
31.06182433375359         13.799711741974306       5.673420381726083E7
31.161380430657704        13.809122563895325       5.631998114095444E7
31.260936527561814        13.818533385816345       5.590414131763054E7
31.360492624465927        13.827944207737367       5.5487283492660746E7
31.460048721370036        13.837355029658386       5.50805087909103E7
31.55960481827415         13.846765851579406       5.468403390024217E7
31.659160915178262        13.856176673500427       5.419774981213443E7
31.75871701208237         13.865587495421448       5.379654421771802E7
31.858273108986484        13.874998317342468       5.336366048365104E7
31.957829205890594        13.884409139263486       5.2940796007405244E7
32.05738530279471         13.893819961184507       5.251995649236358E7
32.15694139969882         13.903230783105528       5.209245604582365E7
32.25649749660293         13.912641605026549       5.167386472839543E7
32.356053593507035        13.922052426947566       5.126438840499656E7
32.45560969041115         13.931463248868587       5.077441598001786E7
22.5                      12.990381056766578       8.223484121464966E7
22.599211370919978        13.002914367589685       8.205481690494044E7
22.698422741839956        13.01544767841279        8.19006615572392E7
22.79763411275993         13.027980989235898       8.176243681036215E7
22.89684548367991         13.040514300059005       8.159356906238578E7
22.99605685459989         13.053047610882114       8.137827485204281E7
23.095268225519863        13.065580921705221       8.117950813264321E7
23.194479596439844        13.078114232528328       8.101323483607338E7
23.293690967359822        13.090647543351436       8.085060506926918E7
23.3929023382798          13.103180854174541       8.061536389172974E7
23.492113709199774        13.115714164997646       8.039582907433502E7
23.591325080119756        13.128247475820755       8.01921396255095E7
23.690536451039733        13.140780786643862       7.997893379209623E7
23.789747821959704        13.15331409746697        7.977286448307055E7