% Model:              Nanowire_Eigenfrequency.mph
% Version:            COMSOL 5.6.0.341
% Date:               Dec 14 2021, 16:46
% Dimension:          2
% Nodes:              20301
% Expressions:        1
% Description:        Electric field norm
% Length unit:        nm
% X                       Y                        ewfd.normE (V/m) @ lambda=8E-12
22.5                      12.990381056766578       3.901041719904727E9
22.5999999                12.990381056766578       3.901039860338875E9
22.699999799999997        12.990381056766578       3.9010413845496125E9
22.799999699999997        12.990381056766578       3.901043611128763E9
22.8999996                12.990381056766578       3.9010427426483335E9
22.9999995                12.990381056766578       3.901032745670193E9
23.099999399999998        12.990381056766578       3.9010234581647716E9
23.1999993                12.990381056766578       3.9010148801582193E9
23.2999992                12.990381056766578       3.9010078841027074E9
23.399999099999995        12.990381056766578       3.9009870871632714E9
23.499999                 12.990381056766578       3.9009716270427504E9
23.5999989                12.990381056766578       3.900956904853546E9
23.699998799999996        12.990381056766578       3.900906133397962E9
23.7999987                12.990381056766578       3.9008869014529047E9
23.8999986                12.990381056766578       3.900830130097851E9
23.999998499999997        12.990381056766578       3.9007741318984528E9
24.0999984                12.990381056766578       3.900718653934621E9
24.1999983                12.990381056766578       3.900621157712178E9
24.299998199999997        12.990381056766578       3.9005345485207367E9
24.399998099999998        12.990381056766578       3.9004487554413347E9
24.499998                 12.990381056766578       3.900340090710656E9
24.599997899999998        12.990381056766578       3.9001627399772744E9
24.699997799999995        12.990381056766578       3.8999862443088784E9
24.7999977                12.990381056766578       3.8998236555314207E9
24.8999976                12.990381056766578       3.899592394632749E9
24.999997499999996        12.990381056766578       3.8993360753480177E9
25.0999974                12.990381056766578       3.899099890562034E9
25.1999973                12.990381056766578       3.898864655302306E9
25.299997199999996        12.990381056766578       3.8985302349808364E9
25.3999971                12.990381056766578       3.898098769337606E9
25.499997                 12.990381056766578       3.897683635152468E9
25.599996899999997        12.990381056766578       3.8972916258772197E9
25.6999968                12.990381056766578       3.8967840339174123E9
25.7999967                12.990381056766578       3.896221105056774E9
25.899996599999998        12.990381056766578       3.895700648005166E9
25.999996499999998        12.990381056766578       3.895035003524884E9
26.099996400000002        12.990381056766578       3.894286005709355E9
26.1999963                12.990381056766578       3.893598403818472E9
26.299996199999995        12.990381056766578       3.892880396454186E9
26.3999961                12.990381056766578       3.891887586553181E9
26.499996                 12.990381056766578       3.890899159274896E9
26.599995899999996        12.990381056766578       3.8899779426233706E9
26.6999958                12.990381056766578       3.888949196999172E9
26.7999957                12.990381056766578       3.887624863944776E9
26.899995599999997        12.990381056766578       3.8863515266809993E9
26.9999955                12.990381056766578       3.88514831816888E9
27.0999954                12.990381056766578       3.883877746468757E9
27.199995299999998        12.990381056766578       3.8821506571098604E9
27.299995199999994        12.990381056766578       3.8804273456401205E9
27.399995099999998        12.990381056766578       3.8787656296989827E9
27.499994999999995        12.990381056766578       3.877170586784278E9
27.599994899999995        12.990381056766578       3.875066443001406E9
27.6999948                12.990381056766578       3.8727876082265353E9
27.7999947                12.990381056766578       3.870717556112145E9
27.899994599999996        12.990381056766578       3.8686527592813663E9
27.9999945                12.990381056766578       3.866593226682858E9
28.0999944                12.990381056766578       3.8636146980870767E9
28.199994299999997        12.990381056766578       3.8607897609160037E9
28.2999942                12.990381056766578       3.858074637426196E9
28.3999941                12.990381056766578       3.855228734007927E9
28.499993999999997        12.990381056766578       3.8520109784743805E9
28.5999939                12.990381056766578       3.84880252277403E9
28.6999938                12.990381056766578       3.845254176444187E9
28.799993699999998        12.990381056766578       3.841676910615404E9
28.899993600000002        12.990381056766578       3.837958135290499E9
28.999993500000002        12.990381056766578       3.8342523787880917E9
29.099993399999995        12.990381056766578       3.8301857669617095E9
29.199993299999996        12.990381056766578       3.8257125370902867E9
29.2999932                12.990381056766578       3.821257123606407E9
29.399993099999996        12.990381056766578       3.816810588177823E9
29.499992999999996        12.990381056766578       3.8117551451533637E9
29.5999929                12.990381056766578       3.8068040638316007E9
29.6999928                12.990381056766578       3.8018753956036882E9
29.799992699999997        12.990381056766578       3.7964738955632496E9
29.8999926                12.990381056766578       3.7905647288518033E9
29.9999925                12.990381056766578       3.784686763459792E9
30.099992399999998        12.990381056766578       3.778873210636844E9
30.199992299999998        12.990381056766578       3.772375941602875E9
30.2999922                12.990381056766578       3.7659194807542143E9
30.399992099999995        12.990381056766578       3.7595021271337633E9
30.499991999999995        12.990381056766578       3.7530320892713423E9
30.599991899999996        12.990381056766578       3.7453856783451915E9
30.6999918                12.990381056766578       3.7377943453419924E9
30.7999917                12.990381056766578       3.730258428040626E9
30.8999916                12.990381056766578       3.722490772030567E9
30.999991499999997        12.990381056766578       3.71427243953513E9
31.099991399999997        12.990381056766578       3.706122478741107E9
31.199991299999997        12.990381056766578       3.698041343440744E9
31.2999912                12.990381056766578       3.6895257570688686E9
31.3999911                12.990381056766578       3.679982926595987E9
31.499991                 12.990381056766578       3.6705375672156363E9
31.5999909                12.990381056766578       3.6611904352548127E9
31.6999908                12.990381056766578       3.6515440963417773E9
31.7999907                12.990381056766578       3.6414881506605935E9
31.8999906                12.990381056766578       3.6315522359534974E9
31.999990499999996        12.990381056766578       3.6217373423029327E9
32.099990399999996        12.990381056766578       3.611620958397019E9
32.199990299999996        12.990381056766578       3.6002930342625203E9
32.299990199999996        12.990381056766578       3.589137355751903E9
32.3999901                12.990381056766578       3.578155536335214E9
32.49998999999999         12.990381056766578       3.567349184087382E9
22.5                      12.990381056766578       3.901041719904727E9
22.599950556085915        12.993522129533316       3.90090697258329E9
22.699901112171833        12.99666320230005        3.900775615733981E9
22.79985166825775         12.999804275066788       3.9006449683124456E9
22.899802224343667        13.002945347833526       3.9005108617907996E9
22.999752780429585        13.006086420600264       3.9003679118562665E9
23.099703336515503        13.009227493367          3.90022567902974E9
23.199653892601415        13.012368566133736       3.9000788485565357E9
23.299604448687337        13.015509638900472       3.899946863059539E9
23.399555004773255        13.018650711667211       3.8997884337460923E9
23.499505560859166        13.021791784433947       3.8996392215804305E9
23.599456116945085        13.024932857200685       3.899491302199084E9
23.699406673031007        13.02807392996742        3.8993022294971423E9
23.79935722911692         13.031215002734157       3.8991531527035933E9
23.899307785202836        13.034356075500895       3.8989630781846905E9
23.99925834128876         13.037497148267633       3.898781981666565E9
24.099208897374673        13.040638221034369       3.898579279121119E9
24.199159453460588        13.043779293801105       3.898356235317806E9
24.29911000954651         13.046920366567841       3.898136449071701E9
24.399060565632425        13.05006143933458        3.8979174873868504E9
24.49901112171834         13.053202512101317       3.897676198553992E9
24.598961677804258        13.056343584868054       3.8973657694612207E9
24.698912233890177        13.059484657634789       3.8970562094490795E9
24.798862789976095        13.062625730401527       3.896764697989695E9
24.898813346062006        13.065766803168263       3.8963779593037295E9
24.998763902147928        13.068907875935002       3.896007735185012E9
25.098714458233847        13.072048948701738       3.8956384675330567E9
25.198665014319758        13.075190021468476       3.89527015705378E9
25.29861557040568         13.07833109423521        3.8948072047727847E9
25.3985661264916          13.081472167001948       3.894242985626657E9
25.49851668257751         13.084613239768686       3.893679848390795E9
25.59846723866343         13.087754312535424       3.893158116377824E9
25.698417794749346        13.09089538530216        3.892488438652977E9
25.79836835083526         13.094036458068896       3.8918338669367437E9
25.89831890692118         13.097177530835632       3.8911805194718695E9
25.998269463007098        13.100318603602371       3.8903899272462125E9
26.098220019093013        13.103459676369107       3.889506142483618E9
26.19817057517893         13.106600749135845       3.8886238117797313E9
26.29812113126485         13.10974182190258        3.887701264228992E9
26.398071687350768        13.112882894669317       3.8866438250985293E9
26.498022243436683        13.116023967436055       3.8855880025266805E9
26.5979727995226          13.119165040202793       3.8845339540320716E9
26.69792335560852         13.122306112969529       3.883398742253445E9
26.797873911694435        13.125447185736267       3.8819427901877613E9
26.897824467780353        13.128588258503001       3.8804892569282484E9
26.99777502386627         13.131729331269739       3.879038145795387E9
27.097725579952186        13.134870404036477       3.877452327956627E9
27.1976761360381          13.138011476803214       3.8757628350709186E9
27.29762669212402         13.14115254956995        3.874029240287183E9
27.397577248209934        13.144293622336686       3.872298775539634E9
27.497527804295853        13.147434695103422       3.870571445674433E9
27.597478360381775        13.150575767870162       3.868414422319381E9
27.69742891646769         13.153716840636898       3.866001056042658E9
27.797379472553605        13.156857913403636       3.8635926816350718E9
27.897330028639523        13.15999898617037        3.8611893091206026E9
27.99728058472544         13.163140058937108       3.85879249699451E9
28.097231140811356        13.166281131703846       3.8560876796106663E9
28.197181696897275        13.169422204470584       3.853191681466446E9
28.297132252983193        13.17256327723732        3.850302960895579E9
28.397082809069108        13.175704350004056       3.84742153509843E9
28.497033365155023        13.178845422770792       3.8439915137443113E9
28.596983921240945        13.18198649553753        3.840534187472766E9
28.696934477326863        13.185127568304267       3.8370866697316E9
28.796885033412774        13.188268641071005       3.8333197059550104E9
28.896835589498696        13.191409713837741       3.8292840272490172E9
28.996786145584615        13.194550786604477       3.825408311533745E9
29.096736701670526        13.197691859371213       3.821173756493062E9
29.196687257756448        13.200832932137953       3.816561948205696E9
29.296637813842366        13.203974004904689       3.8120766701663795E9
29.396588369928278        13.207115077671427       3.807663632468682E9
29.496538926014196        13.21025615043816        3.8023446934260335E9
29.596489482100118        13.213397223204899       3.797048293496533E9
29.69644003818603         13.216538295971636       3.791969218699025E9
29.796390594271944        13.219679368738374       3.7862822207303767E9
29.896341150357866        13.22282044150511        3.780292869556245E9
29.99629170644378         13.225961514271846       3.774470397944486E9
30.096242262529696        13.229102587038582       3.7686761154994802E9
30.196192818615614        13.23224365980532        3.762002295096937E9
30.296143374701536        13.235384732572058       3.755116292778749E9
30.39609393078745         13.238525805338796       3.748387140602476E9
30.49604448687337         13.24166687810553        3.7415513929244704E9
30.595995042959284        13.244807950872268       3.73376338588905E9
30.6959455990452          13.247949023639004       3.7263000994236126E9
30.79589615513112         13.251090096405743       3.7188797453923335E9
30.89584671121704         13.25423116917248        3.7112311538424296E9
30.995797267302954        13.257372241939217       3.7024674451870403E9
31.09574782338887         13.260513314705952       3.6937747246242614E9
31.195698379474788        13.26365438747269        3.6853824479853654E9
31.295648935560703        13.266795460239427       3.676404608076603E9
31.395599491646617        13.269936533006165       3.666801249209528E9
31.495550047732543        13.273077605772901       3.657539942351712E9
31.595500603818458        13.276218678539637       3.6483666165176826E9
31.695451159904373        13.279359751306373       3.6388209709087596E9
31.795401715990295        13.282500824073113       3.628062533015513E9
31.895352272076206        13.285641896839849       3.6174301688258142E9
31.99530282816212         13.288782969606586       3.607207407327382E9
32.09525338424804         13.29192404237332        3.596466180584269E9
32.19520394033396         13.295065115140059       3.584623894337022E9
32.295154496419876        13.298206187906796       3.573547243688983E9
32.3951050525058          13.301347260673534       3.562730558743232E9
32.495055608591706        13.30448833344027        3.552169151436621E9
22.5                      12.990381056766578       3.901041719904727E9
22.599802573040154        12.996660102440456       3.900774222112698E9
22.699605146080305        13.002939148114336       3.900510134690745E9
22.799407719120463        13.009218193788216       3.900246776955666E9
22.899210292160618        13.015497239462096       3.8999796636197343E9
22.99901286520077         13.021776285135974       3.8997039644109936E9
23.098815438240926        13.028055330809853       3.8994290031448927E9
23.198618011281077        13.034334376483734       3.899152302020841E9
23.298420584321235        13.040613422157612       3.898887564986599E9
23.39822315736139         13.046892467831492       3.898596817393317E9
23.49802573040154         13.05317151350537        3.8983068179077168E9
23.5978283034417          13.059450559179252       3.898028192041455E9
23.69763087648185         13.065729604853129       3.897701341911404E9
23.797433449522007        13.07200865052701        3.8974170880529804E9
23.89723602256216         13.078287696200888       3.897107386241345E9
23.997038595602312        13.084566741874768       3.896798463141734E9
24.09684116864247         13.090845787548647       3.896469752727207E9
24.196643741682625        13.097124833222528       3.8961073297739377E9
24.296446314722775        13.103403878896405       3.895744678733363E9
24.396248887762933        13.109682924570286       3.8953930269816504E9
24.496051460803084        13.115961970244165       3.895021466284413E9
24.595854033843242        13.122241015918044       3.8945785573404493E9
24.695656606883396        13.128520061591924       3.8941548331416717E9
24.795459179923544        13.134799107265804       3.893752413056877E9
24.895261752963705        13.141078152939684       3.893228153077137E9
24.995064326003856        13.14735719861356        3.892693372473923E9
25.094866899044014        13.153636244287442       3.8921917574926124E9
25.194669472084165        13.15991528996132        3.8916911208154936E9
25.294472045124316        13.1661943356352         3.891105934941269E9
25.394274618164474        13.172473381309079       3.8904099351217995E9
25.494077191204628        13.17875242698296        3.8897631799589357E9
25.59387976424478         13.185031472656837       3.8891228858338113E9
25.693682337284937        13.191310518330718       3.88832702236268E9
25.793484910325088        13.197589564004597       3.887503770124144E9
25.893287483365246        13.203868609678477       3.886691808030777E9
25.9930900564054          13.210147655352355       3.88578558943786E9
26.09289262944555         13.216426701026236       3.8848127101114845E9
26.19269520248571         13.222705746700115       3.883864751555958E9
26.29249777552586         13.228984792373994       3.882885704944351E9
26.392300348566014        13.235263838047873       3.8816441741312532E9
26.492102921606172        13.241542883721754       3.880404290410571E9
26.591905494646323        13.247821929395633       3.8791481160728555E9
26.69170806768648         13.254100975069512       3.877925171015288E9
26.791510640726635        13.260380020743392       3.876335265968852E9
26.891313213766786        13.266659066417269       3.874876244095397E9
26.991115786806944        13.27293811209115        3.873419185458983E9
27.090918359847095        13.279217157765029       3.8718548040468636E9
27.190720932887253        13.285496203438909       3.869899481216234E9
27.290523505927407        13.291775249112787       3.867947170730644E9
27.390326078967558        13.298054294786668       3.865943836269308E9
27.490128652007716        13.304333340460547       3.8640869233773313E9
27.589931225047867        13.310612386134427       3.861914892809206E9
27.68973379808802         13.316891431808305       3.8593589240864244E9
27.78953637112818         13.323170477482186       3.857046563504828E9
27.88933894416833         13.329449523156063       3.8547380737205396E9
27.989141517208488        13.335728568829945       3.8524334622885165E9
28.088944090248642        13.342007614503823       3.849112181373498E9
28.188746663288793        13.348286660177703       3.8463104440558257E9
28.28854923632895         13.35456570585158        3.8432344430414834E9
28.3883518093691          13.360844751525462       3.840054304601967E9
28.48815438240926         13.36712379719934        3.836728767294212E9
28.587956955449414        13.37340284287322        3.833274309831875E9
28.687759528489565        13.3796818885471         3.829633331381003E9
28.787562101529723        13.385960934220977       3.825847360896883E9
28.887364674569874        13.392239979894859       3.8217931669197245E9
28.987167247610028        13.398519025568737       3.817623979284448E9
29.086969820650182        13.404798071242618       3.8134733929993815E9
29.186772393690337        13.411077116916495       3.808830624437549E9
29.286574966730495        13.417356162590377       3.804320903317581E9
29.386377539770645        13.423635208264255       3.7997116506507473E9
29.486180112810796        13.429914253938135       3.7943795776310167E9
29.585982685850958        13.436193299612013       3.7890682423018484E9
29.68578525889111         13.442472345285895       3.7837614544184957E9
29.785587831931267        13.448751390959771       3.7782663091250005E9
29.885390404971417        13.455030436633653       3.772152409661991E9
29.985192978011575        13.46130948230753        3.7663018076885824E9
30.084995551051723        13.46758852798141        3.7604772679741874E9
30.18479812409188         13.473867573655289       3.753613183596621E9
30.284600697132035        13.48014661932917        3.746748266952293E9
30.38440327017219         13.486425665003049       3.739933778080513E9
30.48420584321234         13.492704710676929       3.7333953652807875E9
30.584008416252495        13.498983756350809       3.725513356734126E9
30.68381098929265         13.505262802024687       3.7178554310583434E9
30.783613562332807        13.511541847698567       3.7104363756335406E9
30.88341613537296         13.517820893372445       3.7025229102244606E9
30.98321870841312         13.524099939046327       3.693821623809906E9
31.083021281453266        13.530378984720203       3.6851062320022717E9
31.182823854493428        13.536658030394085       3.676743770469121E9
31.28262642753358         13.542937076067963       3.6682108012571645E9
31.382429000573733        13.549216121741843       3.6584172643968506E9
31.482231573613884        13.555495167415721       3.648996673691551E9
31.58203414665404         13.561774213089603       3.6398525718177614E9
31.681836719694193        13.568053258763479       3.6299808118420696E9
31.78163929273435         13.57433230443736        3.619322915829029E9
31.881441865774505        13.580611350111239       3.6087376953187957E9
31.98124443881466         13.586890395785119       3.5986067395844955E9
32.081047011854814        13.593169441458997       3.588477038807564E9
32.18084958489497         13.599448487132879       3.576918022462813E9
32.28065215793512         13.605727532806757       3.5651412281603823E9
32.38045473097527         13.612006578480635       3.5543327634541245E9
32.48025730401543         13.618285624154517       3.543781267129055E9
22.5                      12.990381056766578       3.901041719904727E9
22.599556096904113        12.999791878687597       3.9006417399064894E9
22.699112193808222        13.009202700608617       3.900245203298857E9
22.798668290712335        13.01861352252964        3.8998494297544136E9
22.898224387616445        13.028024344450658       3.899449671888066E9
22.997780484520558        13.037435166371678       3.8990415578174496E9
23.09733658142467         13.046845988292697       3.89863421563474E9
23.19689267832878         13.05625681021372        3.8982279581870766E9
23.296448775232893        13.065667632134739       3.8978310332987437E9
23.396004872137           13.075078454055758       3.8974083723464828E9
23.495560969041115        13.084489275976779       3.896986494722735E9
23.595117065945225        13.0939000978978         3.896565401571981E9
23.694673162849337        13.103310919818819       3.896145136096008E9
23.794229259753447        13.112721741739838       3.8957030017953897E9
23.89378535665756         13.122132563660859       3.8952616801101646E9
23.99334145356167         13.13154338558188        3.8948211722324066E9
24.092897550465786        13.140954207502899       3.894367851102566E9
24.19245364736989         13.150365029423918       3.893874371575835E9
24.292009744274008        13.15977585134494        3.893381729136819E9
24.391565841178117        13.16918667326596        3.8928778548340764E9
24.49112193808223         13.178597495186981       3.8923784991871953E9
24.59067803498634         13.188008317107998       3.891818979185149E9
24.690234131890453        13.197419139029021       3.891285672688926E9
24.789790228794562        13.20682996095004        3.8907532216995664E9
24.889346325698675        13.216240782871061       3.8901221260466385E9
24.988902422602784        13.225651604792079       3.8894623738211293E9
25.0884585195069          13.235062426713101       3.8888035435050583E9
25.188014616411007        13.24447324863412        3.888131059133813E9
25.287570713315123        13.253884070555142       3.887430045544801E9
25.387126810219236        13.263294892476159       3.886673065131322E9
25.486682907123345        13.272705714397182       3.8859036366478324E9
25.58623900402746         13.2821165363182         3.885135236286214E9
25.685795100931568        13.29152735823922        3.8842256366838393E9
25.78535119783568         13.300938180160239       3.8832749178983946E9
25.88490729473979         13.310349002081262       3.8823807919012017E9
25.984463391643903        13.319759824002281       3.881333208994726E9
26.084019488548012        13.3291706459233         3.880243403929454E9
26.183575585452125        13.33858146784432        3.8791691099447207E9
26.283131682356235        13.347992289765342       3.878128952760714E9
26.38268777926035         13.357403111686363       3.8767632026959734E9
26.482243876164457        13.36681393360738        3.875399154480257E9
26.581799973068573        13.376224755528401       3.8741346398695755E9
26.681356069972683        13.385635577449422       3.872660203101392E9
26.780912166876796        13.395046399370443       3.8710582878597364E9
26.8804682637809          13.40445722129146        3.869488990881692E9
26.980024360685018        13.413868043212481       3.8679102101410737E9
27.079580457589127        13.423278865133502       3.8663669305286503E9
27.179136554493244        13.432689687054523       3.864293754854548E9
27.27869265139735         13.44210050897554        3.8622236612715507E9
27.378248748301466        13.451511330896562       3.8602419315748405E9
27.477804845205572        13.460922152817583       3.8583649342647243E9
27.57736094210969         13.470332974738604       3.8557599293026104E9
27.676917039013798        13.479743796659621       3.853425248842611E9
27.77647313591791         13.489154618580642       3.85099987512632E9
27.87602923282202         13.498565440501663       3.8485784217763653E9
27.975585329726133        13.507976262422684       3.8461608968318644E9
28.075141426630243        13.517387084343701       3.843026073528581E9
28.17469752353436         13.526797906264722       3.8399113743288937E9
28.274253620438465        13.536208728185745       3.836944561690344E9
28.37380971734258         13.545619550106764       3.833784487328187E9
28.473365814246687        13.555030372027783       3.8302827614459944E9
28.572921911150804        13.564441193948802       3.826788945889813E9
28.672478008054917        13.573852015869825       3.823128197860504E9
28.772034104959022        13.583262837790844       3.8193159129140196E9
28.87159020186314         13.592673659711863       3.8153299815350966E9
28.97114629876725         13.602084481632884       3.81135466600671E9
29.07070239567136         13.611495303553905       3.807078337920641E9
29.17025849257547         13.620906125474924       3.802420511195402E9
29.269814589479587        13.630316947395944       3.7977777190099263E9
29.369370686383693        13.639727769316965       3.7930885002856565E9
29.468926783287806        13.649138591237985       3.7879213869735713E9
29.568482880191915        13.658549413159005       3.7827731344513645E9
29.66803897709603         13.667960235080024       3.7776438192151628E9
29.767595074000138        13.677371057001045       3.77204700150208E9
29.86715117090425         13.686781878922066       3.766035301368008E9
29.966707267808363        13.696192700843083       3.7600505998058476E9
30.066263364712473        13.705603522764104       3.753848105826429E9
30.165819461616586        13.715014344685127       3.7474715156151056E9
30.265375558520702        13.724425166606146       3.740888192194811E9
30.364931655424808        13.733835988527167       3.7343390738259754E9
30.464487752328917        13.743246810448184       3.7276608627778525E9
30.56404384923303         13.752657632369207       3.7200028109738054E9
30.663599946137147        13.762068454290226       3.7123933819060326E9
30.763156043041253        13.771479276211245       3.704832873495426E9
30.86271213994537         13.780890098132264       3.6972543353887677E9
30.962268236849482        13.790300920053287       3.6886742089775248E9
31.06182433375359         13.799711741974306       3.68046801627089E9
31.161380430657704        13.809122563895325       3.672323657714433E9
31.260936527561814        13.818533385816345       3.6636658393816175E9
31.360492624465927        13.827944207737367       3.6542027642868075E9
31.460048721370036        13.837355029658386       3.644827018054683E9
31.55960481827415         13.846765851579406       3.635539273683034E9
31.659160915178262        13.856176673500427       3.6262031154666395E9
31.75871701208237         13.865587495421448       3.6157656927527785E9
31.858273108986484        13.874998317342468       3.6058470618722568E9
31.957829205890594        13.884409139263486       3.596039395292912E9
32.05738530279471         13.893819961184507       3.5857592980306664E9
32.15694139969882         13.903230783105528       3.5746747007051067E9
32.25649749660293         13.912641605026549       3.5637453991870327E9
32.356053593507035        13.922052426947566       3.552972823013591E9
32.45560969041115         13.931463248868587       3.540894652440572E9
22.5                      12.990381056766578       3.901041719904727E9
22.599211370919978        13.002914367589685       3.900509656659875E9
22.698422741839956        13.01544767841279        3.8999810828171782E9
22.79763411275993         13.027980989235898       3.899453318396948E9
22.89684548367991         13.040514300059005       3.8989214088475027E9
22.99605685459989         13.053047610882114       3.898381344552904E9
23.095268225519863        13.065580921705221       3.8978420990617805E9
23.194479596439844        13.078114232528328       3.8973067268110566E9
23.293690967359822        13.090647543351436       3.896778307437065E9
23.3929023382798          13.103180854174541       3.896224267340254E9