% Model:              Nanowire_Eigenfrequency.mph
% Version:            COMSOL 5.6.0.341
% Date:               Dec 14 2021, 16:04
% Dimension:          2
% Nodes:              20301
% Expressions:        1
% Description:        Electric field norm
% Length unit:        nm
% X                       Y                        ewfd.normE (V/m) @ lambda=1E-11
22.5                      12.990381056766578       2.5427080674809077E8
22.5999999                12.990381056766578       2.542765332666765E8
22.699999799999997        12.990381056766578       2.5429034287346908E8
22.799999699999997        12.990381056766578       2.5431169306871942E8
22.8999996                12.990381056766578       2.5434311279079497E8
22.9999995                12.990381056766578       2.543848674476561E8
23.099999399999998        12.990381056766578       2.5443415512632045E8
23.1999993                12.990381056766578       2.5449097285189697E8
23.2999992                12.990381056766578       2.5455863724524772E8
23.399999099999995        12.990381056766578       2.5463692374763107E8
23.499999                 12.990381056766578       2.5472243233934563E8
23.5999989                12.990381056766578       2.5481544832916158E8
23.699998799999996        12.990381056766578       2.5491980578347242E8
23.7999987                12.990381056766578       2.5503272421854702E8
23.8999986                12.990381056766578       2.5515571371249133E8
23.999998499999997        12.990381056766578       2.5528617522301748E8
24.0999984                12.990381056766578       2.5542385613363716E8
24.1999983                12.990381056766578       2.555762523951841E8
24.299998199999997        12.990381056766578       2.5573542102103806E8
24.399998099999998        12.990381056766578       2.5590201600008348E8
24.499998                 12.990381056766578       2.5607833022809806E8
24.599997899999998        12.990381056766578       2.5626702608610842E8
24.699997799999995        12.990381056766578       2.564631051241821E8
24.7999977                12.990381056766578       2.5666656195203972E8
24.8999976                12.990381056766578       2.568818714893985E8
24.999997499999996        12.990381056766578       2.5710835556559655E8
25.0999974                12.990381056766578       2.573414067573637E8
25.1999973                12.990381056766578       2.575817612345373E8
25.299997199999996        12.990381056766578       2.578348832891735E8
25.3999971                12.990381056766578       2.5809991624046975E8
25.499997                 12.990381056766578       2.5837194474569875E8
25.599996899999997        12.990381056766578       2.5865158457594895E8
25.6999968                12.990381056766578       2.5894497614215538E8
25.7999967                12.990381056766578       2.5924761660539702E8
25.899996599999998        12.990381056766578       2.5955609992377633E8
25.999996499999998        12.990381056766578       2.5987884260627583E8
26.099996400000002        12.990381056766578       2.6021252646756122E8
26.1999963                12.990381056766578       2.6055190224126753E8
26.299996199999995        12.990381056766578       2.6089950814373186E8
26.3999961                12.990381056766578       2.6126630647149694E8
26.499996                 12.990381056766578       2.616399076444957E8
26.599995899999996        12.990381056766578       2.620185655868117E8
26.6999958                12.990381056766578       2.6240880609255525E8
26.7999957                12.990381056766578       2.6281759227965355E8
26.899995599999997        12.990381056766578       2.6323220819394845E8
26.9999955                12.990381056766578       2.636520185519236E8
27.0999954                12.990381056766578       2.6408117747213665E8
27.199995299999998        12.990381056766578       2.6453469517783642E8
27.299995199999994        12.990381056766578       2.649949352221123E8
27.399995099999998        12.990381056766578       2.6545969968465343E8
27.499994999999995        12.990381056766578       2.6592951380680296E8
27.599994899999995        12.990381056766578       2.6642451150505167E8
27.6999948                12.990381056766578       2.6693265603433257E8
27.7999947                12.990381056766578       2.6744223762105787E8
27.899994599999996        12.990381056766578       2.6795834710915288E8
27.9999945                12.990381056766578       2.684809613025437E8
28.0999944                12.990381056766578       2.690414197418739E8
28.199994299999997        12.990381056766578       2.6960319721925825E8
28.2999942                12.990381056766578       2.7016851065973955E8
28.3999941                12.990381056766578       2.7074634695823896E8
28.499993999999997        12.990381056766578       2.713427822894516E8
28.5999939                12.990381056766578       2.7194543772261786E8
28.6999938                12.990381056766578       2.72565004145959E8
28.799993699999998        12.990381056766578       2.7319486242958057E8
28.899993600000002        12.990381056766578       2.7383592367231697E8
28.999993500000002        12.990381056766578       2.7448303278594655E8
29.099993399999995        12.990381056766578       2.7514866759738797E8
29.199993299999996        12.990381056766578       2.7583428208239436E8
29.2999932                12.990381056766578       2.76525779630986E8
29.399993099999996        12.990381056766578       2.772224797183286E8
29.499992999999996        12.990381056766578       2.7794791591230744E8
29.5999929                12.990381056766578       2.786766614932806E8
29.6999928                12.990381056766578       2.794111157120818E8
29.799992699999997        12.990381056766578       2.8016748730606747E8
29.8999926                12.990381056766578       2.809468331733257E8
29.9999925                12.990381056766578       2.817316956121263E8
30.099992399999998        12.990381056766578       2.8251976449633986E8
30.199992299999998        12.990381056766578       2.833396720898854E8
30.2999922                12.990381056766578       2.8416494702065694E8
30.399992099999995        12.990381056766578       2.849955530367329E8
30.499991999999995        12.990381056766578       2.858345860559845E8
30.599991899999996        12.990381056766578       2.867184459033997E8
30.6999918                12.990381056766578       2.8760741387015486E8
30.7999917                12.990381056766578       2.8850146343518716E8
30.8999916                12.990381056766578       2.8940970848582685E8
30.999991499999997        12.990381056766578       2.903424744138566E8
31.099991399999997        12.990381056766578       2.912801572958645E8
31.199991299999997        12.990381056766578       2.9222273155293065E8
31.2999912                12.990381056766578       2.9318703267974824E8
31.3999911                12.990381056766578       2.94192808060169E8
31.499991                 12.990381056766578       2.952032202181364E8
31.5999909                12.990381056766578       2.9621824393576366E8
31.6999908                12.990381056766578       2.972515733197226E8
31.7999907                12.990381056766578       2.9830975484634256E8
31.8999906                12.990381056766578       2.993723806864422E8
31.999990499999996        12.990381056766578       3.004394269865641E8
32.099990399999996        12.990381056766578       3.0152403704354304E8
32.199990299999996        12.990381056766578       3.0266486249944645E8
32.299990199999996        12.990381056766578       3.038098299784815E8
32.3999901                12.990381056766578       3.0495891659349155E8
32.49998999999999         12.990381056766578       3.0611209966261417E8
22.5                      12.990381056766578       2.5427080674809077E8
22.599950556085915        12.993522129533316       2.5427605916441256E8
22.699901112171833        12.99666320230005        2.5428939468847632E8
22.79985166825775         12.999804275066788       2.5431027086728314E8
22.899802224343667        13.002945347833526       2.5434115507036865E8
22.999752780429585        13.006086420600264       2.5438242054192734E8
23.099703336515503        13.009227493367          2.5443121922474158E8
23.199653892601415        13.012368566133736       2.5448790407025045E8
23.299604448687337        13.015509638900472       2.545547154784728E8
23.399555004773255        13.018650711667211       2.5463254481899533E8
23.499505560859166        13.021791784433947       2.547176870533889E8
23.599456116945085        13.024932857200685       2.5481022886808985E8
23.699406673031007        13.02807392996742        2.5491382361379647E8
23.79935722911692         13.031215002734157       2.5502657344182652E8
23.899307785202836        13.034356075500895       2.5514909069860697E8
23.99925834128876         13.037497148267633       2.5527865456045437E8
24.099208897374673        13.040638221034369       2.55417288202209E8
24.199159453460588        13.043779293801105       2.555677446404636E8
24.29911000954651         13.046920366567841       2.5572641723707807E8
24.399060565632425        13.05006143933458        2.5589251696065894E8
24.49901112171834         13.053202512101317       2.5606850856903842E8
24.598961677804258        13.056343584868054       2.5625671922880527E8
24.698912233890177        13.059484657634789       2.5645231395982704E8
24.798862789976095        13.062625730401527       2.5665422998230487E8
24.898813346062006        13.065766803168263       2.5687032580556267E8
24.998763902147928        13.068907875935002       2.5709555947868833E8
25.098714458233847        13.072048948701738       2.573281101665314E8
25.198665014319758        13.075190021468476       2.575679654291902E8
25.29861557040568         13.07833109423521        2.5782038558493716E8
25.3985661264916          13.081472167001948       2.5808491568903765E8
25.49851668257751         13.084613239768686       2.5835668344816372E8
25.59846723866343         13.087754312535424       2.5863496154042387E8
25.698417794749346        13.09089538530216        2.589291729787281E8
25.79836835083526         13.094036458068896       2.5922999088617957E8
25.89831890692118         13.097177530835632       2.5953796257207772E8
25.998269463007098        13.100318603602371       2.5985978333961484E8
26.098220019093013        13.103459676369107       2.6019296800231868E8
26.19817057517893         13.106600749135845       2.6053322877564523E8
26.29812113126485         13.10974182190258        2.6088179050180894E8
26.398071687350768        13.112882894669317       2.6124605019233876E8
26.498022243436683        13.116023967436055       2.616172089812584E8
26.5979727995226          13.119165040202793       2.6199533584859794E8
26.69792335560852         13.122306112969529       2.6238404566135424E8
26.797873911694435        13.125447185736267       2.6279228513452414E8
26.897824467780353        13.128588258503001       2.6320738858061013E8
26.99777502386627         13.131729331269739       2.6362933548079556E8
27.097725579952186        13.134870404036477       2.6406189077331448E8
27.1976761360381          13.138011476803214       2.6451021319645503E8
27.29762669212402         13.14115254956995        2.649660610503261E8
27.397577248209934        13.144293622336686       2.654286181451986E8
27.497527804295853        13.147434695103422       2.6589786277942044E8
27.597478360381775        13.150575767870162       2.663897087670772E8
27.69742891646769         13.153716840636898       2.6689702091679043E8
27.797379472553605        13.156857913403636       2.6741087674161473E8
27.897330028639523        13.15999898617037        2.679312527094971E8
27.99728058472544         13.163140058937108       2.6845709118930376E8
28.097231140811356        13.166281131703846       2.69005361233725E8
28.197181696897275        13.169422204470584       2.6956500853583777E8
28.297132252983193        13.17256327723732        2.701310085205392E8
28.397082809069108        13.175704350004056       2.7070333680236244E8
28.497033365155023        13.178845422770792       2.7130056935435873E8
28.596983921240945        13.18198649553753        2.719064836145237E8
28.696934477326863        13.185127568304267       2.7251858017851186E8
28.796885033412774        13.188268641071005       2.7314756939301115E8
28.896835589498696        13.191409713837741       2.737925878507185E8
28.996786145584615        13.194550786604477       2.7443896774222815E8
29.096736701670526        13.197691859371213       2.751034092246941E8
29.196687257756448        13.200832932137953       2.7578682181708455E8
29.296637813842366        13.203974004904689       2.764736785772028E8
29.396588369928278        13.207115077671427       2.771649613304177E8
29.496538926014196        13.21025615043816        2.7789222575752705E8
29.596489482100118        13.213397223204899       2.786252143422026E8
29.69644003818603         13.216538295971636       2.7935699523000854E8
29.796390594271944        13.219679368738374       2.801149461057378E8
29.896341150357866        13.22282044150511        2.8089006837578535E8
29.99629170644378         13.225961514271846       2.8166738523420423E8
30.096242262529696        13.229102587038582       2.824502200965924E8
30.196192818615614        13.23224365980532        2.832682147465369E8
30.296143374701536        13.235384732572058       2.840995641319518E8
30.39609393078745         13.238525805338796       2.8493162481592876E8
30.49604448687337         13.24166687810553        2.8577357896819955E8
30.595995042959284        13.244807950872268       2.8665314349086565E8
30.6959455990452          13.247949023639004       2.8753188835565186E8
30.79589615513112         13.251090096405743       2.8841562449288017E8
30.89584671121704         13.25423116917248        2.893137018744128E8
30.995797267302954        13.257372241939217       2.9025507037338203E8
31.09574782338887         13.260513314705952       2.912013253755599E8
31.195698379474788        13.26365438747269        2.9214335038308394E8
31.295648935560703        13.266795460239427       2.93111753509338E8
31.395599491646617        13.269936533006165       2.9410967821560204E8
31.495550047732543        13.273077605772901       2.951061965066619E8
31.595500603818458        13.276218678539637       2.9610738621750826E8
31.695451159904373        13.279359751306373       2.971289174389701E8
31.795401715990295        13.282500824073113       2.9819938352910787E8
31.895352272076206        13.285641896839849       2.9927425047099394E8
31.99530282816212         13.288782969606586       3.003420333182317E8
32.09525338424804         13.29192404237332        3.0143345638040286E8
32.19520394033396         13.295065115140059       3.025779916898975E8
32.295154496419876        13.298206187906796       3.0370730811504585E8
32.3951050525058          13.301347260673534       3.048361129134521E8
32.495055608591706        13.30448833344027        3.059644846509061E8
22.5                      12.990381056766578       2.5427080674809077E8
22.599802573040154        12.996660102440456       2.5427558305664644E8
22.699605146080305        13.002939148114336       2.5428844247546238E8
22.799407719120463        13.009218193788216       2.5430884259802008E8
22.899210292160618        13.015497239462096       2.5433916827839673E8
22.99901286520077         13.021776285135974       2.5437993727447584E8
23.098815438240926        13.028055330809853       2.5442823966235402E8
23.198618011281077        13.034334376483734       2.544845599445457E8
23.298420584321235        13.040613422157612       2.5455068475481465E8
23.39822315736139         13.046892467831492       2.546280122201755E8
23.49802573040154         13.05317151350537        2.5471285361113673E8
23.5978283034417          13.059450559179252       2.5480486346269125E8
23.69763087648185         13.065729604853129       2.5490763508395052E8
23.797433449522007        13.07200865052701        2.5502044357621688E8
23.89723602256216         13.078287696200888       2.551419091894275E8
23.997038595602312        13.084566741874768       2.5527084872629443E8
24.09684116864247         13.090845787548647       2.5540896771142763E8
24.196643741682625        13.097124833222528       2.555590420202483E8
24.296446314722775        13.103403878896405       2.557169386343237E8
24.396248887762933        13.109682924570286       2.5588251784419525E8
24.496051460803084        13.115961970244165       2.5605802107024E8
24.595854033843242        13.122241015918044       2.5624571496048462E8
24.695656606883396        13.128520061591924       2.564400815132863E8
24.795459179923544        13.134799107265804       2.5664129243300772E8
24.895261752963705        13.141078152939684       2.5685700554890853E8
24.995064326003856        13.14735719861356        2.5708176868526632E8
25.094866899044014        13.153636244287442       2.5731378248420215E8
25.194669472084165        13.15991528996132        2.5755310241025257E8
25.294472045124316        13.1661943356352         2.5780451552203292E8
25.394274618164474        13.172473381309079       2.5806849869621456E8
25.494077191204628        13.17875242698296        2.5833859952596512E8
25.59387976424478         13.185031472656837       2.5861590081985918E8
25.693682337284937        13.191310518330718       2.5890891133109412E8
25.793484910325088        13.197589564004597       2.5921008258260813E8
25.893287483365246        13.203868609678477       2.595179746594757E8
25.9930900564054          13.210147655352355       2.5983846304268852E8
26.09289262944555         13.216426701026236       2.601700654493344E8
26.19269520248571         13.222705746700115       2.6050779367122304E8
26.29249777552586         13.228984792373994       2.6085400084391698E8
26.392300348566014        13.235263838047873       2.6121861091901612E8
26.492102921606172        13.241542883721754       2.6159021525685498E8
26.591905494646323        13.247821929395633       2.6196919396148026E8
26.69170806768648         13.254100975069512       2.6235567253820854E8
26.791510640726635        13.260380020743392       2.627638457406807E8
26.891313213766786        13.266659066417269       2.6317457139883175E8
26.991115786806944        13.27293811209115        2.6359215370811552E8
27.090918359847095        13.279217157765029       2.6402061340366247E8
27.190720932887253        13.285496203438909       2.6447092399314544E8
27.290523505927407        13.291775249112787       2.6492797285192195E8
27.390326078967558        13.298054294786668       2.6539295691810766E8
27.490128652007716        13.304333340460547       2.6586156578136128E8
27.589931225047867        13.310612386134427       2.6634900480529726E8
27.68973379808802         13.316891431808305       2.6685662332980657E8
27.78953637112818         13.323170477482186       2.6736303387964854E8
27.88933894416833         13.329449523156063       2.6787599156084663E8
27.989141517208488        13.335728568829945       2.6839547335846582E8
28.088944090248642        13.342007614503823       2.689556844804945E8
28.188746663288793        13.348286660177703       2.69507239091949E8
28.28854923632895         13.35456570585158        2.700739600619156E8
28.3883518093691          13.360844751525462       2.706509027588567E8
28.48815438240926         13.36712379719934        2.712400858940884E8
28.587956955449414        13.37340284287322        2.7184018726721084E8
28.687759528489565        13.3796818885471         2.724531008600895E8
28.787562101529723        13.385960934220977       2.730778374457932E8
28.887364674569874        13.392239979894859       2.7371787559330136E8
28.987167247610028        13.398519025568737       2.743671747104472E8
29.086969820650182        13.404798071242618       2.750246174348878E8
29.186772393690337        13.411077116916495       2.757049835854219E8
29.286574966730495        13.417356162590377       2.7638690410397804E8
29.386377539770645        13.423635208264255       2.770783178498494E8
29.486180112810796        13.429914253938135       2.778000284255056E8
29.585982685850958        13.436193299612013       2.785274967895891E8
29.68578525889111         13.442472345285895       2.792611194780903E8
29.785587831931267        13.448751390959771       2.8000893162549657E8
29.885390404971417        13.455030436633653       2.807833363545345E8
29.985192978011575        13.46130948230753        2.815551169529085E8
30.084995551051723        13.46758852798141        2.823324535754507E8
30.18479812409188         13.473867573655289       2.8314971986020476E8
30.284600697132035        13.48014661932917        2.8397382352611595E8
30.38440327017219         13.486425665003049       2.848030927618098E8
30.48420584321234         13.492704710676929       2.8563163207225347E8
30.584008416252495        13.498983756350809       2.86510014325103E8
30.68381098929265         13.505262802024687       2.8738803226059276E8
30.783613562332807        13.511541847698567       2.88264474966048E8
30.88341613537296         13.517820893372445       2.891634671194646E8
30.98321870841312         13.524099939046327       2.9009535177426076E8
31.083021281453266        13.530378984720203       2.91034218277394E8
31.182823854493428        13.536658030394085       2.9197127852177924E8
31.28262642753358         13.542937076067963       2.929214793594542E8
31.382429000573733        13.549216121741843       2.9392035781629163E8
31.482231573613884        13.555495167415721       2.9491434283631057E8
31.58203414665404         13.561774213089603       2.959060795383235E8
31.681836719694193        13.568053258763479       2.969296049045204E8
31.78163929273435         13.57433230443736        2.979877860765067E8
31.881441865774505        13.580611350111239       2.9905157589859766E8
31.98124443881466         13.586890395785119       3.0011178885181665E8
32.081047011854814        13.593169441458997       3.01178302228041E8
32.18084958489497         13.599448487132879       3.0230897287912893E8
32.28065215793512         13.605727532806757       3.0344862012294096E8
32.38045473097527         13.612006578480635       3.0456737513178355E8
32.48025730401543         13.618285624154517       3.0568572333324736E8
22.5                      12.990381056766578       2.5427080674809077E8
22.599556096904113        12.999791878687597       2.542751054132991E8
22.699112193808222        13.009202700608617       2.5428748717436576E8
22.798668290712335        13.01861352252964        2.5430740967090717E8
22.898224387616445        13.028024344450658       2.5433715437635878E8
22.997780484520558        13.037435166371678       2.5437742009702894E8
23.09733658142467         13.046845988292697       2.5442521938092306E8
23.19689267832878         13.05625681021372        2.5448116373243138E8
23.296448775232893        13.065667632134739       2.5454654903619012E8
23.396004872137           13.075078454055758       2.5462336155539173E8
23.495560969041115        13.084489275976779       2.547076886324887E8
23.595117065945225        13.0939000978978         2.547995254702395E8
23.694673162849337        13.103310919818819       2.5489996580854827E8
23.794229259753447        13.112721741739838       2.550134149353897E8
23.89378535665756         13.122132563660859       2.5513434562256446E8
23.99334145356167         13.13154338558188        2.552627513235359E8
24.092897550465786        13.140954207502899       2.554002401150354E8
24.19245364736989         13.150365029423918       2.555497781112406E8
24.292009744274008        13.15977585134494        2.5570675878304905E8
24.391565841178117        13.16918667326596        2.5587202842681688E8
24.49112193808223         13.178597495186981       2.5604687797166246E8
24.59067803498634         13.188008317107998       2.5623373866504726E8
24.690234131890453        13.197419139029021       2.5642699692603818E8
24.789790228794562        13.20682996095004        2.5662763485785848E8
24.889346325698675        13.216240782871061       2.56842173839437E8
24.988902422602784        13.225651604792079       2.5706613014412922E8
25.0884585195069          13.235062426713101       2.572974131879706E8
25.188014616411007        13.24447324863412        2.575371863363867E8
25.287570713315123        13.253884070555142       2.5778728805915365E8
25.387126810219236        13.263294892476159       2.5804927352317742E8
25.486682907123345        13.272705714397182       2.5831872469378114E8
25.58623900402746         13.2821165363182         2.585954071413413E8
25.685795100931568        13.29152735823922        2.5888648273096803E8
25.78535119783568         13.300938180160239       2.5918700381764144E8
25.88490729473979         13.310349002081262       2.5949308520196894E8
25.984463391643903        13.319759824002281       2.598130616205376E8
26.084019488548012        13.3291706459233         2.6014304964970297E8
26.183575585452125        13.33858146784432        2.6048009837436318E8
26.283131682356235        13.347992289765342       2.6082343109369057E8
26.38268777926035         13.357403111686363       2.611873217783365E8
26.482243876164457        13.36681393360738        2.6155821202730608E8
26.581799973068573        13.376224755528401       2.6193287562188676E8
26.681356069972683        13.385635577449422       2.6232230150062764E8
26.780912166876796        13.395046399370443       2.627252214583924E8
26.8804682637809          13.40445722129146        2.6313485803285405E8
26.980024360685018        13.413868043212481       2.6355166788233298E8
27.079580457589127        13.423278865133502       2.6397484763426197E8
27.179136554493244        13.432689687054523       2.6442431754680786E8
27.27869265139735         13.44210050897554        2.648805336071117E8
27.378248748301466        13.451511330896562       2.6534022909088844E8
27.477804845205572        13.460922152817583       2.6580418886566788E8
27.57736094210969         13.470332974738604       2.6629955115823564E8
27.676917039013798        13.479743796659621       2.6679571832466143E8
27.77647313591791         13.489154618580642       2.673011906898505E8
27.87602923282202         13.498565440501663       2.678132206447693E8
27.975585329726133        13.507976262422684       2.6833178524165452E8
28.075141426630243        13.517387084343701       2.688822139454113E8
28.17469752353436         13.526797906264722       2.6943775134938407E8
28.274253620438465        13.536208728185745       2.69995540183472E8
28.37380971734258         13.545619550106764       2.705679202810976E8
28.473365814246687        13.555030372027783       2.711578706073184E8
28.572921911150804        13.564441193948802       2.7175409029316205E8
28.672478008054917        13.573852015869825       2.7236168130422306E8
28.772034104959022        13.583262837790844       2.7298409430319124E8
28.87159020186314         13.592673659711863       2.736175303882281E8
28.97114629876725         13.602084481632884       2.7425706903670704E8
29.07070239567136         13.611495303553905       2.7491335695024985E8
29.17025849257547         13.620906125474924       2.7558874068314064E8
29.269814589479587        13.630316947395944       2.7627007415280193E8
29.369370686383693        13.639727769316965       2.769592803798468E8
29.468926783287806        13.649138591237985       2.776716635659775E8
29.568482880191915        13.658549413159005       2.783898577620172E8
29.66803897709603         13.667960235080024       2.7911383703316784E8
29.767595074000138        13.677371057001045       2.7985953548514843E8
29.86715117090425         13.686781878922066       2.8062528343693054E8
29.966707267808363        13.696192700843083       2.813966385716511E8
30.066263364712473        13.705603522764104       2.8217949490733105E8
30.165819461616586        13.715014344685127       2.829796281518781E8
30.265375558520702        13.724425166606146       2.837910163572501E8
30.364931655424808        13.733835988527167       2.846078390050301E8
30.464487752328917        13.743246810448184       2.85435341208143E8
30.56404384923303         13.752657632369207       2.863014638054655E8
30.663599946137147        13.762068454290226       2.871728157013675E8
30.763156043041253        13.771479276211245       2.8804937060841596E8
30.86271213994537         13.780890098132264       2.889328518877145E8
30.962268236849482        13.790300920053287       2.898589661052236E8
31.06182433375359         13.799711741974306       2.907787425422449E8
31.161380430657704        13.809122563895325       2.917035488930518E8
31.260936527561814        13.818533385816345       2.9265232474749714E8
31.360492624465927        13.827944207737367       2.936352931840684E8
31.460048721370036        13.837355029658386       2.946230593922489E8
31.55960481827415         13.846765851579406       2.956155981296311E8
31.659160915178262        13.856176673500427       2.9661752238590807E8
31.75871701208237         13.865587495421448       2.976675637787238E8
31.858273108986484        13.874998317342468       2.987073278044584E8
31.957829205890594        13.884409139263486       2.9975169897865975E8
32.05738530279471         13.893819961184507       3.0081837666061395E8
32.15694139969882         13.903230783105528       3.019282137172304E8
32.25649749660293         13.912641605026549       3.0304241081266433E8
32.356053593507035        13.922052426947566       3.0416094461071676E8
32.45560969041115         13.931463248868587       3.0531822775846726E8
22.5                      12.990381056766578       2.5427080674809077E8
22.599211370919978        13.002914367589685       2.5427462670583066E8
22.698422741839956        13.01544767841279        2.5428652972827128E8
22.79763411275993         13.027980989235898       2.5430597350074276E8
22.89684548367991         13.040514300059005       2.5433511535267112E8
22.99605685459989         13.053047610882114       2.5437487149506405E8
23.095268225519863        13.065580921705221       2.5442216136280835E8
23.194479596439844        13.078114232528328       2.5447771877714497E8
23.293690967359822        13.090647543351436       2.5454231238659793E8